49
 energy: -251.552744395461 gnorm: 0.000447486000 xtb: 6.6.0 (conda-forge)
C           -3.53561000025896        0.97471000022517        0.77917999981845
H           -4.55097210471570        1.17969896739575        1.06005884284722
C           -2.82362269143518        1.59419651075240       -0.26897802051613
H           -3.19433058412490        2.36529860075330       -0.91948306257537
C           -1.50304579385726        1.06495922506399       -0.27272908861535
C           -2.66087213826736        0.08459262116210        1.43707045036816
H           -2.89525597594125       -0.48747958485872        2.31561231004930
C           -1.40660117926404        0.14725061152696        0.80347174228429
H           -0.53297533977676       -0.41150835537498        1.08254311742229
C           -4.69260566766839       -0.67049772053576       -1.70418145695481
H           -5.60773331052107       -0.15362079637925       -1.48419877318229
C           -3.67747105918172       -0.23502773906720       -2.58696134225701
H           -3.69087165561821        0.66750556782912       -3.16943656312132
C           -2.68791088382739       -1.23980022733988       -2.63853936121340
H           -1.79052183582449       -1.22126306100060       -3.22734643747808
C           -4.31457034545676       -1.93295860336055       -1.20012613515639
H           -4.89766542417345       -2.55219115118922       -0.54163645952030
C           -3.08657895031842       -2.28947286862765       -1.79726987357771
H           -2.54686271853467       -3.20473455703496       -1.63882994106387
Fe          -2.93753384877664       -0.39086030784465       -0.68364524609375
C           -0.45384695479325        1.39825282191184       -1.27779972301418
H           -0.93176687322503        1.74836764184731       -2.19430294839635
H            0.12088409316485        0.50152756270285       -1.50303724037823
N            0.50268383833821        2.46335728397230       -0.83719212883920
C            1.20009491465354        2.04931306533922        0.39040649593594
H            0.48604433712512        1.95127707140788        1.20498682659379
H            1.68957546554575        1.09080188528889        0.22743929286347
H            1.94813461420295        2.79308545039910        0.65569829220240
C           -0.23423053186924        3.71525552418275       -0.59491714799805
H            0.45914488634536        4.49539958139062       -0.28895553179039
H           -0.73614484269940        4.01518019602457       -1.51299993381923
H           -0.97169219410333        3.56026629315210        0.18955733535679
C            1.48237493933928        2.67449183780145       -1.91509081315233
H            0.96057140269256        2.96338292992108       -2.82561441250376
H            2.17507065342170        3.46428206981999       -1.63484049368674
H            2.03803209399184        1.75582563960102       -2.09388420846855
P            0.96230370738278       -2.57135255914660       -0.99977298294167
F            0.20026418384674       -4.00174916672368       -0.95425240856986
F            0.92564640779108       -2.59241654079126       -2.61784152437962
F            2.39328531042190       -3.35261486819970       -1.02819928050313
F            1.74996843016224       -1.15336437646521       -1.03478573119825
F            1.02298761611497       -2.55375375341590        0.62300899931578
F           -0.44314808782891       -1.79406244990452       -0.95945584613646
C            1.24246379852924        1.80257688977915        7.58831834237513
C            0.66256261185914        1.49237299945961        8.86089306698712
N            0.19825714768326        1.24401108802169        9.87770041988592
H            0.57922149061412        1.46125185938831        6.79497594748882
H            1.38350767631299        2.87929410121854        7.50638424146415
H            2.20712388238842        1.30480935666899        7.49939231382577
