      -----------------------------------------------------------      
     |                   =====================                   |     
     |                           x T B                           |     
     |                   =====================                   |     
     |                         S. Grimme                         |     
     |          Mulliken Center for Theoretical Chemistry        |     
     |                    University of Bonn                     |     
      -----------------------------------------------------------      

   * xtb version 6.6.0 (conda-forge) compiled by 'runner@Mac-1676020848589.local' on 2023-02-10

   xtb is free software: you can redistribute it and/or modify it under
   the terms of the GNU Lesser General Public License as published by
   the Free Software Foundation, either version 3 of the License, or
   (at your option) any later version.
   
   xtb is distributed in the hope that it will be useful,
   but WITHOUT ANY WARRANTY; without even the implied warranty of
   MERCHANTABILITY or FITNESS FOR A PARTICULAR PURPOSE.  See the
   GNU Lesser General Public License for more details.
   
   Cite this work as:
   * C. Bannwarth, E. Caldeweyher, S. Ehlert, A. Hansen, P. Pracht,
     J. Seibert, S. Spicher, S. Grimme, WIREs Comput. Mol. Sci., 2020, 11,
     e01493. DOI: 10.1002/wcms.1493
   
   for GFN2-xTB:
   * C. Bannwarth, S. Ehlert and S. Grimme., J. Chem. Theory Comput., 2019,
     15, 1652-1671. DOI: 10.1021/acs.jctc.8b01176
   for GFN1-xTB:
   * S. Grimme, C. Bannwarth, P. Shushkov, J. Chem. Theory Comput., 2017,
     13, 1989-2009. DOI: 10.1021/acs.jctc.7b00118
   for GFN0-xTB:
   * P. Pracht, E. Caldeweyher, S. Ehlert, S. Grimme, ChemRxiv, 2019, preprint.
     DOI: 10.26434/chemrxiv.8326202.v1
   for GFN-FF:
   * S. Spicher and S. Grimme, Angew. Chem. Int. Ed., 2020, 59, 15665-15673.
     DOI: 10.1002/anie.202004239
   
   for ALPB and GBSA implicit solvation:
   * S. Ehlert, M. Stahn, S. Spicher, S. Grimme, J. Chem. Theory Comput.,
     2021, 17, 4250-4261. DOI: 10.1021/acs.jctc.1c00471
   
   for DFT-D4:
   * E. Caldeweyher, C. Bannwarth and S. Grimme, J. Chem. Phys., 2017,
     147, 034112. DOI: 10.1063/1.4993215
   * E. Caldeweyher, S. Ehlert, A. Hansen, H. Neugebauer, S. Spicher,
     C. Bannwarth and S. Grimme, J. Chem. Phys., 2019, 150, 154122.
     DOI: 10.1063/1.5090222
   * E. Caldeweyher, J.-M. Mewes, S. Ehlert and S. Grimme, Phys. Chem. Chem. Phys.
     2020, 22, 8499-8512. DOI: 10.1039/D0CP00502A
   
   for sTDA-xTB:
   * S. Grimme and C. Bannwarth, J. Chem. Phys., 2016, 145, 054103.
     DOI: 10.1063/1.4959605
   
   in the mass-spec context:
   * V. Asgeirsson, C. Bauer and S. Grimme, Chem. Sci., 2017, 8, 4879.
     DOI: 10.1039/c7sc00601b
   * J. Koopman and S. Grimme, ACS Omega 2019, 4, 12, 15120-15133.
     DOI: 10.1021/acsomega.9b02011
   
   for metadynamics refer to:
   * S. Grimme, J. Chem. Theory Comput., 2019, 155, 2847-2862
     DOI: 10.1021/acs.jctc.9b00143
   
   for SPH calculations refer to:
   * S. Spicher and S. Grimme, J. Chem. Theory Comput., 2021, 17, 1701-1714
     DOI: 10.1021/acs.jctc.0c01306
   
   with help from (in alphabetical order)
   P. Atkinson, C. Bannwarth, F. Bohle, G. Brandenburg, E. Caldeweyher
   M. Checinski, S. Dohm, S. Ehlert, S. Ehrlich, I. Gerasimov, C. Hölzer
   A. Katbashev, J. Koopman, C. Lavigne, S. Lehtola, F. März, M. Müller,
   F. Musil, H. Neugebauer, J. Pisarek, C. Plett, P. Pracht, F. Pultar,
   J. Seibert, P. Shushkov, S. Spicher, M. Stahn, M. Steiner, T. Strunk,
   J. Stückrath, T. Rose, and J. Unsleber
   
 * started run on 2025/02/18 at 10:12:08.825     

           -------------------------------------------------
          |                Calculation Setup                |
           -------------------------------------------------

          program call               : xtb tmpcoord --gfn2 --opt
          coordinate file            : tmpcoord
          omp threads                :                     1

   ID    Z sym.   atoms
    1    6 c      1, 3, 5, 6, 8, 10, 12, 14, 16, 18, 21, 25, 29, 33, 44, 45
    2    1 h      2, 4, 7, 9, 11, 13, 15, 17, 19, 22, 23, 26-28, 30-32,
                  34-36, 47-49
    3   26 fe     20
    4    7 n      24, 46
    5   15 p      37
    6    9 f      38-43

molecular fragmentation (1/2 indicates fragments):
1111111111111111111111111111111111112222222222222
# atoms in fragment 1/2:    36    13
 fragment masses (1/2) :      258.16      186.02
CMA distance (Bohr)    :   7.769
constraining FC (au)   :  0.0500

           -------------------------------------------------
          |                 G F N 2 - x T B                 |
           -------------------------------------------------

        Reference                      10.1021/acs.jctc.8b01176
      * Hamiltonian:
        H0-scaling (s, p, d)           1.850000    2.230000    2.230000
        zeta-weighting                 0.500000
      * Dispersion:
        s8                             2.700000
        a1                             0.520000
        a2                             5.000000
        s9                             5.000000
      * Repulsion:
        kExp                           1.500000    1.000000
        rExp                           1.000000
      * Coulomb:
        alpha                          2.000000
        third order                    shell-resolved
        anisotropic                    true
        a3                             3.000000
        a5                             4.000000
        cn-shift                       1.200000
        cn-exp                         4.000000
        max-rad                        5.000000


          ...................................................
          :                      SETUP                      :
          :.................................................:
          :  # basis functions                 139          :
          :  # atomic orbitals                 137          :
          :  # shells                           77          :
          :  # electrons                       152          :
          :  max. iterations                   250          :
          :  Hamiltonian                  GFN2-xTB          :
          :  restarted?                      false          :
          :  GBSA solvation                  false          :
          :  PC potential                    false          :
          :  electronic temp.          300.0000000     K    :
          :  accuracy                    1.0000000          :
          :  -> integral cutoff          0.2500000E+02      :
          :  -> integral neglect         0.1000000E-07      :
          :  -> SCF convergence          0.1000000E-05 Eh   :
          :  -> wf. convergence          0.1000000E-03 e    :
          :  Broyden damping             0.4000000          :
          ...................................................

 iter      E             dE          RMSdq      gap      omega  full diag
   1    -86.6204336 -0.866204E+02  0.880E+00    1.89       0.0  T
   2    -86.9198795 -0.299446E+00  0.318E+00    1.26       1.0  T
   3    -86.9705707 -0.506911E-01  0.220E+00    1.62       1.0  T
   4    -86.9896136 -0.190429E-01  0.112E+00    1.38       1.0  T
   5    -87.0038838 -0.142702E-01  0.321E-01    1.47       1.0  T
   6    -87.0044544 -0.570579E-03  0.178E-01    1.47       1.0  T
   7    -87.0049495 -0.495094E-03  0.724E-02    1.47       1.0  T
   8    -87.0050423 -0.928126E-04  0.357E-02    1.47       1.0  T
   9    -87.0050491 -0.680935E-05  0.204E-02    1.46       1.0  T
  10    -87.0050553 -0.617565E-05  0.712E-03    1.47       2.0  T
  11    -87.0050557 -0.397762E-06  0.355E-03    1.47       4.0  T
  12    -87.0050558 -0.998903E-07  0.154E-03    1.47       9.2  T
  13    -87.0050558 -0.117876E-07  0.365E-04    1.47      39.1  T
  14    -87.0050558 -0.176604E-08  0.218E-04    1.47      65.5  T

   *** convergence criteria satisfied after 14 iterations ***

         #    Occupation            Energy/Eh            Energy/eV
      -------------------------------------------------------------
         1        2.0000           -0.7823156             -21.2879
       ...           ...                  ...                  ...
        70        2.0000           -0.3936905             -10.7129
        71        2.0000           -0.3909451             -10.6382
        72        2.0000           -0.3750914             -10.2068
        73        2.0000           -0.3713834             -10.1059
        74        2.0000           -0.3197304              -8.7003
        75        2.0000           -0.3169154              -8.6237
        76        2.0000           -0.3124704              -8.5028 (HOMO)
        77                         -0.2586298              -7.0377 (LUMO)
        78                         -0.2572622              -7.0005
        79                         -0.2056658              -5.5965
        80                         -0.2055726              -5.5939
        81                         -0.1806927              -4.9169
       ...                                ...                  ...
       137                          3.8260409             104.1119
      -------------------------------------------------------------
                  HL-Gap            0.0538406 Eh            1.4651 eV
             Fermi-level           -0.2856474 Eh           -7.7729 eV

 SCC (total)                   0 d,  0 h,  0 min,  0.133 sec
 SCC setup                      ...        0 min,  0.001 sec (  1.113%)
 Dispersion                     ...        0 min,  0.001 sec (  0.768%)
 classical contributions        ...        0 min,  0.000 sec (  0.342%)
 integral evaluation            ...        0 min,  0.009 sec (  6.492%)
 iterations                     ...        0 min,  0.095 sec ( 71.291%)
 molecular gradient             ...        0 min,  0.026 sec ( 19.463%)
 printout                       ...        0 min,  0.001 sec (  0.515%)

         :::::::::::::::::::::::::::::::::::::::::::::::::::::
         ::                     SUMMARY                     ::
         :::::::::::::::::::::::::::::::::::::::::::::::::::::
         :: total energy             -86.065208934293 Eh    ::
         :: gradient norm              0.056746232701 Eh/a0 ::
         :: HOMO-LUMO gap              1.465076995704 eV    ::
         ::.................................................::
         :: SCC energy               -87.005055766839 Eh    ::
         :: -> isotropic ES            0.137633532229 Eh    ::
         :: -> anisotropic ES         -0.021570811032 Eh    ::
         :: -> anisotropic XC          0.038988969175 Eh    ::
         :: -> dispersion             -0.049303062784 Eh    ::
         :: repulsion energy           0.938541803593 Eh    ::
         :: add. restraining           0.000000000000 Eh    ::
         :: total charge              -0.000000000000 e     ::
         :::::::::::::::::::::::::::::::::::::::::::::::::::::

      ----------------------------------------------------------- 
     |                   =====================                   |
     |                        A N C O P T                        |
     |                   =====================                   |
     |               Approximate Normal Coordinate               |
     |                Rational Function Optimizer                |
      ----------------------------------------------------------- 

          ...................................................
          :                      SETUP                      :
          :.................................................:
          :   optimization level            normal          :
          :   max. optcycles                   200          :
          :   ANC micro-cycles                  20          :
          :   degrees of freedom               141          :
          :.................................................:
          :   RF solver                   davidson          :
          :   write xtbopt.log                true          :
          :   linear?                        false          :
          :   energy convergence         0.5000000E-05 Eh   :
          :   grad. convergence          0.1000000E-02 Eh/α :
          :   maxmium RF displ.          1.0000000          :
          :   Hlow (freq-cutoff)         0.1000000E-01      :
          :   Hmax (freq-cutoff)         5.0000000          :
          :   S6 in model hess.         20.0000000          :
          ...................................................

generating ANC from model Hessian ...
Using Lindh-Hessian (1995)
 Shifting diagonal of input Hessian by    1.0090910983317434E-002
 Lowest  eigenvalues of input Hessian
    0.010000    0.010025    0.000000    0.000000    0.000000    0.000000
    0.000000    0.000000    0.010095    0.010301    0.010629    0.010684
    0.010702    0.010793    0.011032    0.011152    0.011300    0.011555
 Highest eigenvalues
    1.818704    1.825251    2.534482    2.574709    2.666197    2.849059


........................................................................
.............................. CYCLE    1 ..............................
........................................................................

 iter      E             dE          RMSdq      gap      omega  full diag
   1    -87.0050558 -0.870051E+02  0.115E-04    1.47       0.0  T
   2    -87.0050558 -0.723901E-10  0.849E-05    1.47     168.3  T
   3    -87.0050558 -0.445368E-10  0.630E-05    1.47     226.6  T
     SCC iter.                  ...        0 min,  0.020 sec
     gradient                   ...        0 min,  0.025 sec
 * total energy  :   -86.0652089 Eh     change       -0.6022276E-09 Eh
   gradient norm :     0.0567451 Eh/α   predicted     0.0000000E+00 (-100.00%)
   displ. norm   :     0.3341305 α      lambda       -0.4034369E-02
   maximum displ.:     0.2640814 α      in ANC's #13, #19, #4, ...

........................................................................
.............................. CYCLE    2 ..............................
........................................................................

 iter      E             dE          RMSdq      gap      omega  full diag
   1    -87.0060536 -0.870061E+02  0.121E-01    1.44       0.0  T
   2    -87.0060843 -0.307151E-04  0.676E-02    1.44       1.0  T
   3    -87.0060993 -0.149630E-04  0.387E-02    1.44       1.0  T
   4    -87.0061014 -0.213258E-05  0.154E-02    1.44       1.0  T
   5    -87.0061034 -0.193465E-05  0.444E-03    1.44       3.2  T
   6    -87.0061036 -0.250958E-06  0.252E-03    1.44       5.7  T
   7    -87.0061037 -0.942596E-07  0.782E-04    1.44      18.3  T
   8    -87.0061037 -0.575440E-09  0.368E-04    1.44      38.9  T
     SCC iter.                  ...        0 min,  0.053 sec
     gradient                   ...        0 min,  0.025 sec
 * total energy  :   -86.0686335 Eh     change       -0.3424590E-02 Eh
   gradient norm :     0.0418496 Eh/α   predicted    -0.2274459E-02 ( -33.58%)
   displ. norm   :     0.5681972 α      lambda       -0.5040209E-02
   maximum displ.:     0.4534683 α      in ANC's #13, #4, #6, ...

........................................................................
.............................. CYCLE    3 ..............................
........................................................................

 iter      E             dE          RMSdq      gap      omega  full diag
   1    -87.0048441 -0.870048E+02  0.206E-01    1.37       0.0  T
   2    -87.0049241 -0.799868E-04  0.112E-01    1.37       1.0  T
   3    -87.0049560 -0.319772E-04  0.641E-02    1.38       1.0  T
   4    -87.0049597 -0.364331E-05  0.300E-02    1.37       1.0  T
   5    -87.0049670 -0.727853E-05  0.777E-03    1.38       1.8  T
   6    -87.0049675 -0.526769E-06  0.482E-03    1.38       3.0  T
   7    -87.0049678 -0.347682E-06  0.139E-03    1.38      10.3  T
   8    -87.0049678 -0.255865E-08  0.622E-04    1.38      23.0  T
   9    -87.0049679 -0.426903E-08  0.325E-04    1.38      43.9  T
     SCC iter.                  ...        0 min,  0.058 sec
     gradient                   ...        0 min,  0.025 sec
 * total energy  :   -86.0720352 Eh     change       -0.3401712E-02 Eh
   gradient norm :     0.0198366 Eh/α   predicted    -0.3333717E-02 (  -2.00%)
   displ. norm   :     0.5024166 α      lambda       -0.2539018E-02
   maximum displ.:     0.3635464 α      in ANC's #13, #18, #4, ...

........................................................................
.............................. CYCLE    4 ..............................
........................................................................

 iter      E             dE          RMSdq      gap      omega  full diag
   1    -87.0015917 -0.870016E+02  0.335E-01    1.31       0.0  T
   2    -87.0016865 -0.948403E-04  0.184E-01    1.31       1.0  T
   3    -87.0016928 -0.629091E-05  0.107E-01    1.32       1.0  T
   4    -87.0017217 -0.288870E-04  0.286E-02    1.31       1.0  T
   5    -87.0017291 -0.739369E-05  0.693E-03    1.32       2.1  T
   6    -87.0017293 -0.208847E-06  0.459E-03    1.31       3.1  T
   7    -87.0017297 -0.356743E-06  0.110E-03    1.31      13.0  T
   8    -87.0017297 -0.146942E-08  0.509E-04    1.31      28.1  T
   9    -87.0017297 -0.217307E-08  0.265E-04    1.31      53.8  T
     SCC iter.                  ...        0 min,  0.059 sec
     gradient                   ...        0 min,  0.025 sec
 * total energy  :   -86.0724834 Eh     change       -0.4481522E-03 Eh
   gradient norm :     0.0247570 Eh/α   predicted    -0.1589962E-02 ( 254.78%)
   displ. norm   :     0.2615071 α      lambda       -0.2379886E-02
   maximum displ.:     0.1557738 α      in ANC's #18, #13, #4, ...

........................................................................
.............................. CYCLE    5 ..............................
........................................................................

 iter      E             dE          RMSdq      gap      omega  full diag
   1    -87.0120513 -0.870121E+02  0.243E-01    1.29       0.0  T
   2    -87.0120894 -0.380391E-04  0.136E-01    1.29       1.0  T
   3    -87.0120828  0.657976E-05  0.737E-02    1.29       1.0  T
   4    -87.0121070 -0.242027E-04  0.117E-02    1.29       1.2  T
   5    -87.0121085 -0.149128E-05  0.374E-03    1.29       3.8  T
   6    -87.0121086 -0.147985E-06  0.211E-03    1.29       6.8  T
   7    -87.0121087 -0.505418E-07  0.447E-04    1.29      32.0  T
   8    -87.0121087 -0.237250E-09  0.235E-04    1.29      60.8  T
     SCC iter.                  ...        0 min,  0.051 sec
     gradient                   ...        0 min,  0.025 sec
 * total energy  :   -86.0735900 Eh     change       -0.1106612E-02 Eh
   gradient norm :     0.0200143 Eh/α   predicted    -0.1271324E-02 (  14.88%)
   displ. norm   :     0.1563533 α      lambda       -0.6100293E-03
   maximum displ.:     0.0734376 α      in ANC's #4, #6, #17, ...

........................................................................
.............................. CYCLE    6 ..............................
........................................................................

 iter      E             dE          RMSdq      gap      omega  full diag
   1    -87.0102087 -0.870102E+02  0.630E-02    1.29       0.0  T
   2    -87.0102135 -0.472788E-05  0.408E-02    1.28       1.0  T
   3    -87.0102212 -0.776530E-05  0.173E-02    1.29       1.0  T
   4    -87.0102210  0.235077E-06  0.831E-03    1.28       1.7  T
   5    -87.0102220 -0.102382E-05  0.168E-03    1.28       8.5  T
   6    -87.0102220 -0.131619E-07  0.840E-04    1.28      17.0  T
   7    -87.0102220 -0.330054E-08  0.366E-04    1.28      39.1  T
     SCC iter.                  ...        0 min,  0.045 sec
     gradient                   ...        0 min,  0.025 sec
 * total energy  :   -86.0740390 Eh     change       -0.4489762E-03 Eh
   gradient norm :     0.0062041 Eh/α   predicted    -0.3124726E-03 ( -30.40%)
   displ. norm   :     0.3659192 α      lambda       -0.7509158E-03
   maximum displ.:     0.1912413 α      in ANC's #4, #6, #15, ...

........................................................................
.............................. CYCLE    7 ..............................
........................................................................

 iter      E             dE          RMSdq      gap      omega  full diag
   1    -87.0096324 -0.870096E+02  0.159E-01    1.25       0.0  T
   2    -87.0096514 -0.190112E-04  0.966E-02    1.24       1.0  T
   3    -87.0096930 -0.415501E-04  0.339E-02    1.25       1.0  T
   4    -87.0096926  0.379565E-06  0.186E-02    1.25       1.0  T
   5    -87.0096965 -0.394712E-05  0.494E-03    1.25       2.9  T
   6    -87.0096968 -0.245506E-06  0.155E-03    1.25       9.2  T
   7    -87.0096968 -0.892845E-08  0.591E-04    1.25      24.2  T
   8    -87.0096968 -0.264689E-08  0.337E-04    1.25      42.4  T
     SCC iter.                  ...        0 min,  0.052 sec
     gradient                   ...        0 min,  0.025 sec
 * total energy  :   -86.0745942 Eh     change       -0.5552482E-03 Eh
   gradient norm :     0.0078250 Eh/α   predicted    -0.4257308E-03 ( -23.33%)
   displ. norm   :     0.3971972 α      lambda       -0.4847972E-03
   maximum displ.:     0.2125653 α      in ANC's #4, #6, #15, ...

........................................................................
.............................. CYCLE    8 ..............................
........................................................................

 iter      E             dE          RMSdq      gap      omega  full diag
   1    -87.0081507 -0.870082E+02  0.185E-01    1.20       0.0  T
   2    -87.0081703 -0.195413E-04  0.108E-01    1.20       1.0  T
   3    -87.0082183 -0.480291E-04  0.367E-02    1.20       1.0  T
   4    -87.0082187 -0.448509E-06  0.208E-02    1.20       1.0  T
   5    -87.0082232 -0.449649E-05  0.582E-03    1.20       2.5  T
   6    -87.0082236 -0.366179E-06  0.150E-03    1.20       9.5  T
   7    -87.0082236 -0.101699E-07  0.625E-04    1.20      22.9  T
   8    -87.0082236 -0.308818E-08  0.337E-04    1.20      42.4  T
     SCC iter.                  ...        0 min,  0.052 sec
     gradient                   ...        0 min,  0.025 sec
 * total energy  :   -86.0749625 Eh     change       -0.3682622E-03 Eh
   gradient norm :     0.0102271 Eh/α   predicted    -0.2806615E-03 ( -23.79%)
   displ. norm   :     0.3943033 α      lambda       -0.3856500E-03
   maximum displ.:     0.2150894 α      in ANC's #4, #15, #6, ...

........................................................................
.............................. CYCLE    9 ..............................
........................................................................

 iter      E             dE          RMSdq      gap      omega  full diag
   1    -87.0071527 -0.870072E+02  0.190E-01    1.16       0.0  T
   2    -87.0071697 -0.169232E-04  0.109E-01    1.15       1.0  T
   3    -87.0072185 -0.487956E-04  0.358E-02    1.16       1.0  T
   4    -87.0072191 -0.594440E-06  0.213E-02    1.16       1.0  T
   5    -87.0072240 -0.494225E-05  0.592E-03    1.16       2.4  T
   6    -87.0072243 -0.312616E-06  0.139E-03    1.16      10.3  T
   7    -87.0072243 -0.111034E-07  0.642E-04    1.16      22.2  T
   8    -87.0072243 -0.276512E-08  0.329E-04    1.16      43.4  T
     SCC iter.                  ...        0 min,  0.053 sec
     gradient                   ...        0 min,  0.025 sec
 * total energy  :   -86.0752653 Eh     change       -0.3027810E-03 Eh
   gradient norm :     0.0080087 Eh/α   predicted    -0.2228059E-03 ( -26.41%)
   displ. norm   :     0.4025866 α      lambda       -0.3554646E-03
   maximum displ.:     0.2236171 α      in ANC's #4, #15, #9, ...

........................................................................
.............................. CYCLE   10 ..............................
........................................................................

 iter      E             dE          RMSdq      gap      omega  full diag
   1    -87.0067237 -0.870067E+02  0.196E-01    1.11       0.0  T
   2    -87.0067402 -0.165344E-04  0.112E-01    1.11       1.0  T
   3    -87.0067894 -0.492051E-04  0.367E-02    1.11       1.0  T
   4    -87.0067896 -0.120759E-06  0.227E-02    1.11       1.0  T
   5    -87.0067957 -0.615225E-05  0.615E-03    1.11       2.3  T
   6    -87.0067960 -0.286545E-06  0.144E-03    1.11       9.9  T
   7    -87.0067960 -0.113309E-07  0.719E-04    1.11      19.9  T
   8    -87.0067960 -0.325926E-08  0.354E-04    1.11      40.4  T
     SCC iter.                  ...        0 min,  0.052 sec
     gradient                   ...        0 min,  0.025 sec
 * total energy  :   -86.0755350 Eh     change       -0.2697449E-03 Eh
   gradient norm :     0.0043586 Eh/α   predicted    -0.2065399E-03 ( -23.43%)
   displ. norm   :     0.3668583 α      lambda       -0.2618572E-03
   maximum displ.:     0.2027733 α      in ANC's #4, #15, #9, ...

........................................................................
.............................. CYCLE   11 ..............................
........................................................................

 iter      E             dE          RMSdq      gap      omega  full diag
   1    -87.0066085 -0.870066E+02  0.173E-01    1.07       0.0  T
   2    -87.0066220 -0.134712E-04  0.993E-02    1.07       1.0  T
   3    -87.0066578 -0.358260E-04  0.339E-02    1.08       1.0  T
   4    -87.0066564  0.133275E-05  0.218E-02    1.07       1.0  T
   5    -87.0066628 -0.639808E-05  0.558E-03    1.07       2.6  T
   6    -87.0066631 -0.208094E-06  0.144E-03    1.07       9.9  T
   7    -87.0066631 -0.744257E-08  0.727E-04    1.07      19.6  T
   8    -87.0066631 -0.381549E-08  0.339E-04    1.07      42.1  T
     SCC iter.                  ...        0 min,  0.052 sec
     gradient                   ...        0 min,  0.025 sec
 * total energy  :   -86.0757289 Eh     change       -0.1939303E-03 Eh
   gradient norm :     0.0040637 Eh/α   predicted    -0.1485634E-03 ( -23.39%)
   displ. norm   :     0.3300397 α      lambda       -0.1893829E-03
   maximum displ.:     0.1734724 α      in ANC's #4, #15, #10, ...

........................................................................
.............................. CYCLE   12 ..............................
........................................................................

 iter      E             dE          RMSdq      gap      omega  full diag
   1    -87.0064383 -0.870064E+02  0.147E-01    1.04       0.0  T
   2    -87.0064490 -0.107272E-04  0.851E-02    1.04       1.0  T
   3    -87.0064723 -0.232885E-04  0.307E-02    1.04       1.0  T
   4    -87.0064700  0.232772E-05  0.200E-02    1.04       1.0  T
   5    -87.0064757 -0.576881E-05  0.516E-03    1.04       2.8  T
   6    -87.0064759 -0.180231E-06  0.162E-03    1.04       8.8  T
   7    -87.0064759 -0.575909E-08  0.711E-04    1.04      20.1  T
   8    -87.0064759 -0.427474E-08  0.312E-04    1.04      45.8  T
     SCC iter.                  ...        0 min,  0.052 sec
     gradient                   ...        0 min,  0.025 sec
 * total energy  :   -86.0758707 Eh     change       -0.1417564E-03 Eh
   gradient norm :     0.0052192 Eh/α   predicted    -0.1050065E-03 ( -25.92%)
   displ. norm   :     0.2652859 α      lambda       -0.1439913E-03
   maximum displ.:     0.1296748 α      in ANC's #4, #10, #8, ...

........................................................................
.............................. CYCLE   13 ..............................
........................................................................

 iter      E             dE          RMSdq      gap      omega  full diag
   1    -87.0064041 -0.870064E+02  0.110E-01    1.02       0.0  T
   2    -87.0064110 -0.689360E-05  0.660E-02    1.02       1.0  T
   3    -87.0064228 -0.118368E-04  0.253E-02    1.02       1.0  T
   4    -87.0064207  0.209088E-05  0.158E-02    1.02       1.0  T
   5    -87.0064245 -0.376321E-05  0.432E-03    1.02       3.3  T
   6    -87.0064246 -0.140648E-06  0.167E-03    1.02       8.6  T
   7    -87.0064246 -0.904906E-08  0.605E-04    1.02      23.6  T
   8    -87.0064246 -0.330321E-08  0.239E-04    1.02      59.7  T
     SCC iter.                  ...        0 min,  0.051 sec
     gradient                   ...        0 min,  0.025 sec
 * total energy  :   -86.0759831 Eh     change       -0.1124416E-03 Eh
   gradient norm :     0.0052735 Eh/α   predicted    -0.7706615E-04 ( -31.46%)
   displ. norm   :     0.2522066 α      lambda       -0.1374312E-03
   maximum displ.:     0.1190841 α      in ANC's #10, #8, #4, ...

........................................................................
.............................. CYCLE   14 ..............................
........................................................................

 iter      E             dE          RMSdq      gap      omega  full diag
   1    -87.0063205 -0.870063E+02  0.100E-01    1.00       0.0  T
   2    -87.0063271 -0.665010E-05  0.620E-02    1.00       1.0  T
   3    -87.0063357 -0.854686E-05  0.248E-02    1.00       1.0  T
   4    -87.0063339  0.179273E-05  0.137E-02    1.00       1.0  T
   5    -87.0063368 -0.291486E-05  0.387E-03    1.00       3.7  T
   6    -87.0063369 -0.113852E-06  0.179E-03    1.00       8.0  T
   7    -87.0063369 -0.160760E-07  0.593E-04    1.00      24.1  T
   8    -87.0063369 -0.316271E-08  0.214E-04    1.00      66.7  T
     SCC iter.                  ...        0 min,  0.052 sec
     gradient                   ...        0 min,  0.025 sec
 * total energy  :   -86.0760864 Eh     change       -0.1032814E-03 Eh
   gradient norm :     0.0046640 Eh/α   predicted    -0.7308688E-04 ( -29.24%)
   displ. norm   :     0.2269556 α      lambda       -0.1058137E-03
   maximum displ.:     0.1195000 α      in ANC's #8, #10, #4, ...

........................................................................
.............................. CYCLE   15 ..............................
........................................................................

 iter      E             dE          RMSdq      gap      omega  full diag
   1    -87.0060092 -0.870060E+02  0.931E-02    0.99       0.0  T
   2    -87.0060154 -0.619614E-05  0.594E-02    0.99       1.0  T
   3    -87.0060220 -0.661716E-05  0.230E-02    0.99       1.0  T
   4    -87.0060210  0.102187E-05  0.108E-02    0.99       1.3  T
   5    -87.0060228 -0.177262E-05  0.287E-03    0.99       5.0  T
   6    -87.0060228 -0.610594E-07  0.150E-03    0.99       9.5  T
   7    -87.0060229 -0.101029E-07  0.571E-04    0.99      25.0  T
   8    -87.0060229 -0.291571E-08  0.179E-04    0.99      80.0  T
     SCC iter.                  ...        0 min,  0.053 sec
     gradient                   ...        0 min,  0.025 sec
 * total energy  :   -86.0761661 Eh     change       -0.7965197E-04 Eh
   gradient norm :     0.0042373 Eh/α   predicted    -0.5563291E-04 ( -30.16%)
   displ. norm   :     0.2371973 α      lambda       -0.9749967E-04
   maximum displ.:     0.1287339 α      in ANC's #8, #10, #4, ...

........................................................................
.............................. CYCLE   16 ..............................
........................................................................

 iter      E             dE          RMSdq      gap      omega  full diag
   1    -87.0056972 -0.870057E+02  0.104E-01    0.98       0.0  T
   2    -87.0057047 -0.749319E-05  0.683E-02    0.98       1.0  T
   3    -87.0057126 -0.792747E-05  0.247E-02    0.98       1.0  T
   4    -87.0057119  0.749519E-06  0.101E-02    0.98       1.4  T
   5    -87.0057134 -0.148500E-05  0.250E-03    0.98       5.7  T
   6    -87.0057134 -0.506540E-07  0.142E-03    0.98      10.1  T
   7    -87.0057134 -0.813426E-08  0.598E-04    0.98      23.9  T
   8    -87.0057134 -0.309737E-08  0.169E-04    0.98      84.3  T
     SCC iter.                  ...        0 min,  0.052 sec
     gradient                   ...        0 min,  0.025 sec
 * total energy  :   -86.0762435 Eh     change       -0.7742541E-04 Eh
   gradient norm :     0.0043481 Eh/α   predicted    -0.5149955E-04 ( -33.48%)
   displ. norm   :     0.3480848 α      lambda       -0.1353231E-03
   maximum displ.:     0.1832287 α      in ANC's #8, #10, #6, ...

........................................................................
.............................. CYCLE   17 ..............................
........................................................................

 iter      E             dE          RMSdq      gap      omega  full diag
   1    -87.0048704 -0.870049E+02  0.161E-01    0.96       0.0  T
   2    -87.0048869 -0.164933E-04  0.109E-01    0.96       1.0  T
   3    -87.0049058 -0.189388E-04  0.370E-02    0.96       1.0  T
   4    -87.0049046  0.128142E-05  0.142E-02    0.96       1.0  T
   5    -87.0049073 -0.270308E-05  0.389E-03    0.96       3.7  T
   6    -87.0049074 -0.156468E-06  0.210E-03    0.96       6.8  T
   7    -87.0049074 -0.195424E-07  0.845E-04    0.96      16.9  T
   8    -87.0049074 -0.608358E-08  0.256E-04    0.96      55.8  T
     SCC iter.                  ...        0 min,  0.052 sec
     gradient                   ...        0 min,  0.025 sec
 * total energy  :   -86.0763528 Eh     change       -0.1093218E-03 Eh
   gradient norm :     0.0054125 Eh/α   predicted    -0.7586050E-04 ( -30.61%)
   displ. norm   :     0.3839517 α      lambda       -0.1660620E-03
   maximum displ.:     0.2001991 α      in ANC's #8, #6, #5, ...

........................................................................
.............................. CYCLE   18 ..............................
........................................................................

 iter      E             dE          RMSdq      gap      omega  full diag
   1    -87.0050374 -0.870050E+02  0.181E-01    0.95       0.0  T
   2    -87.0050575 -0.201134E-04  0.125E-01    0.95       1.0  T
   3    -87.0050805 -0.230634E-04  0.399E-02    0.95       1.0  T
   4    -87.0050799  0.609615E-06  0.134E-02    0.95       1.1  T
   5    -87.0050817 -0.179914E-05  0.498E-03    0.95       2.9  T
   6    -87.0050820 -0.297275E-06  0.237E-03    0.95       6.0  T
   7    -87.0050821 -0.390579E-07  0.823E-04    0.95      17.4  T
   8    -87.0050821 -0.513920E-08  0.270E-04    0.95      52.8  T
     SCC iter.                  ...        0 min,  0.052 sec
     gradient                   ...        0 min,  0.025 sec
 * total energy  :   -86.0764897 Eh     change       -0.1368649E-03 Eh
   gradient norm :     0.0057191 Eh/α   predicted    -0.9527195E-04 ( -30.39%)
   displ. norm   :     0.4175609 α      lambda       -0.1871276E-03
   maximum displ.:     0.2194169 α      in ANC's #6, #8, #5, ...

........................................................................
.............................. CYCLE   19 ..............................
........................................................................

 iter      E             dE          RMSdq      gap      omega  full diag
   1    -87.0034378 -0.870034E+02  0.212E-01    0.94       0.0  T
   2    -87.0034616 -0.238585E-04  0.147E-01    0.94       1.0  T
   3    -87.0034924 -0.307535E-04  0.460E-02    0.94       1.0  T
   4    -87.0034914  0.101195E-05  0.161E-02    0.94       1.0  T
   5    -87.0034939 -0.256410E-05  0.568E-03    0.94       2.5  T
   6    -87.0034944 -0.479425E-06  0.233E-03    0.94       6.1  T
   7    -87.0034944 -0.225112E-07  0.983E-04    0.94      14.5  T
   8    -87.0034945 -0.834974E-08  0.301E-04    0.94      47.4  T
     SCC iter.                  ...        0 min,  0.052 sec
     gradient                   ...        0 min,  0.025 sec
 * total energy  :   -86.0766465 Eh     change       -0.1567860E-03 Eh
   gradient norm :     0.0062930 Eh/α   predicted    -0.1098804E-03 ( -29.92%)
   displ. norm   :     0.3885994 α      lambda       -0.2417095E-03
   maximum displ.:     0.2466206 α      in ANC's #6, #8, #15, ...

........................................................................
.............................. CYCLE   20 ..............................
........................................................................

 iter      E             dE          RMSdq      gap      omega  full diag
   1    -87.0078687 -0.870079E+02  0.182E-01    0.93       0.0  T
   2    -87.0078877 -0.189575E-04  0.132E-01    0.93       1.0  T
   3    -87.0079119 -0.241940E-04  0.364E-02    0.93       1.0  T
   4    -87.0079117  0.126764E-06  0.131E-02    0.93       1.1  T
   5    -87.0079122 -0.455327E-06  0.756E-03    0.93       1.9  T
   6    -87.0079127 -0.521719E-06  0.217E-03    0.93       6.6  T
   7    -87.0079128 -0.822983E-07  0.693E-04    0.93      20.6  T
   8    -87.0079128 -0.442991E-08  0.234E-04    0.93      61.0  T
     SCC iter.                  ...        0 min,  0.052 sec
     gradient                   ...        0 min,  0.025 sec
 * total energy  :   -86.0767946 Eh     change       -0.1481680E-03 Eh
   gradient norm :     0.0089691 Eh/α   predicted    -0.1391073E-03 (  -6.12%)
   displ. norm   :     0.5420651 α      lambda       -0.2626930E-03
   maximum displ.:     0.2875023 α      in ANC's #6, #8, #5, ...
 * RMSD in coord.:     0.7537317 α      energy gain  -0.1158571E-01 Eh

generating ANC from model Hessian ...
Using Lindh-Hessian (1995)
 Shifting diagonal of input Hessian by    1.0057896894632308E-002
 Lowest  eigenvalues of input Hessian
    0.010000    0.010023    0.000000    0.000000    0.000000    0.000000
    0.000000    0.000000    0.010063    0.010253    0.010595    0.010641
    0.010665    0.010705    0.010972    0.011490    0.011518    0.011608
 Highest eigenvalues
    1.802214    1.805090    2.549562    2.553507    2.567940    2.736485


........................................................................
.............................. CYCLE   21 ..............................
........................................................................

 iter      E             dE          RMSdq      gap      omega  full diag
   1    -87.0020264 -0.870020E+02  0.290E-01    0.91       0.0  T
   2    -87.0020662 -0.398598E-04  0.197E-01    0.91       1.0  T
   3    -87.0021217 -0.554216E-04  0.635E-02    0.91       1.0  T
   4    -87.0021187  0.290821E-05  0.254E-02    0.91       1.0  T
   5    -87.0021247 -0.591582E-05  0.951E-03    0.91       1.5  T
   6    -87.0021263 -0.167006E-05  0.294E-03    0.91       4.9  T
   7    -87.0021264 -0.233242E-07  0.145E-03    0.91       9.8  T
   8    -87.0021264 -0.191641E-07  0.509E-04    0.91      28.1  T
   9    -87.0021264 -0.258805E-08  0.251E-04    0.91      57.0  T
     SCC iter.                  ...        0 min,  0.058 sec
     gradient                   ...        0 min,  0.025 sec
 * total energy  :   -86.0769480 Eh     change       -0.1533453E-03 Eh
   gradient norm :     0.0085647 Eh/α   predicted     0.0000000E+00 (-100.00%)
   displ. norm   :     0.0643446 α      lambda       -0.1599110E-03
   maximum displ.:     0.0285444 α      in ANC's #8, #12, #17, ...

........................................................................
.............................. CYCLE   22 ..............................
........................................................................

 iter      E             dE          RMSdq      gap      omega  full diag
   1    -87.0056622 -0.870057E+02  0.320E-02    0.91       0.0  T
   2    -87.0056630 -0.833121E-06  0.187E-02    0.91       1.0  T
   3    -87.0056624  0.581263E-06  0.129E-02    0.91       1.1  T
   4    -87.0056638 -0.133040E-05  0.350E-03    0.91       4.1  T
   5    -87.0056638 -0.408267E-07  0.151E-03    0.91       9.5  T
   6    -87.0056638 -0.414980E-07  0.577E-04    0.91      24.7  T
   7    -87.0056638 -0.588825E-08  0.213E-04    0.91      67.0  T
     SCC iter.                  ...        0 min,  0.045 sec
     gradient                   ...        0 min,  0.025 sec
 * total energy  :   -86.0770692 Eh     change       -0.1212574E-03 Eh
   gradient norm :     0.0050355 Eh/α   predicted    -0.8106402E-04 ( -33.15%)
   displ. norm   :     0.1836670 α      lambda       -0.2713475E-03
   maximum displ.:     0.0825605 α      in ANC's #8, #12, #14, ...

........................................................................
.............................. CYCLE   23 ..............................
........................................................................

 iter      E             dE          RMSdq      gap      omega  full diag
   1    -87.0100527 -0.870101E+02  0.802E-02    0.90       0.0  T
   2    -87.0100577 -0.499278E-05  0.458E-02    0.90       1.0  T
   3    -87.0100545  0.319404E-05  0.260E-02    0.90       1.0  T
   4    -87.0100597 -0.520634E-05  0.103E-02    0.90       1.4  T
   5    -87.0100602 -0.446573E-06  0.331E-03    0.90       4.3  T
   6    -87.0100602 -0.833451E-07  0.129E-03    0.90      11.1  T
   7    -87.0100603 -0.333893E-07  0.581E-04    0.90      24.6  T
   8    -87.0100603 -0.372253E-08  0.294E-04    0.90      48.5  T
     SCC iter.                  ...        0 min,  0.052 sec
     gradient                   ...        0 min,  0.025 sec
 * total energy  :   -86.0771472 Eh     change       -0.7792812E-04 Eh
   gradient norm :     0.0071898 Eh/α   predicted    -0.1402865E-03 (  80.02%)
   displ. norm   :     0.1521180 α      lambda       -0.2476086E-03
   maximum displ.:     0.0679446 α      in ANC's #12, #14, #8, ...

........................................................................
.............................. CYCLE   24 ..............................
........................................................................

 iter      E             dE          RMSdq      gap      omega  full diag
   1    -87.0092937 -0.870093E+02  0.112E-01    0.90       0.0  T
   2    -87.0093003 -0.654755E-05  0.620E-02    0.90       1.0  T
   3    -87.0093015 -0.120018E-05  0.119E-02    0.90       1.2  T
   4    -87.0093024 -0.908414E-06  0.497E-03    0.90       2.9  T
   5    -87.0093026 -0.195923E-06  0.345E-03    0.90       4.1  T
   6    -87.0093027 -0.149937E-06  0.635E-04    0.90      22.5  T
   7    -87.0093027 -0.493965E-08  0.373E-04    0.90      38.3  T
     SCC iter.                  ...        0 min,  0.045 sec
     gradient                   ...        0 min,  0.025 sec
 * total energy  :   -86.0772634 Eh     change       -0.1162264E-03 Eh
   gradient norm :     0.0053675 Eh/α   predicted    -0.1266775E-03 (   8.99%)
   displ. norm   :     0.0774150 α      lambda       -0.8808037E-04
   maximum displ.:     0.0451043 α      in ANC's #12, #14, #8, ...

........................................................................
.............................. CYCLE   25 ..............................
........................................................................

 iter      E             dE          RMSdq      gap      omega  full diag
   1    -87.0079486 -0.870079E+02  0.192E-02    0.90       0.0  T
   2    -87.0079490 -0.375294E-06  0.107E-02    0.90       1.3  T
   3    -87.0079491 -0.141803E-06  0.650E-03    0.90       2.2  T
   4    -87.0079492 -0.461413E-07  0.244E-03    0.90       5.9  T
   5    -87.0079492 -0.622587E-07  0.711E-04    0.90      20.1  T
   6    -87.0079492 -0.118108E-07  0.350E-04    0.90      40.8  T
     SCC iter.                  ...        0 min,  0.039 sec
     gradient                   ...        0 min,  0.025 sec
 * total energy  :   -86.0773391 Eh     change       -0.7572888E-04 Eh
   gradient norm :     0.0034738 Eh/α   predicted    -0.4430577E-04 ( -41.49%)
   displ. norm   :     0.2934416 α      lambda       -0.1980490E-03
   maximum displ.:     0.1596435 α      in ANC's #12, #14, #8, ...

........................................................................
.............................. CYCLE   26 ..............................
........................................................................

 iter      E             dE          RMSdq      gap      omega  full diag
   1    -87.0048811 -0.870049E+02  0.648E-02    0.90       0.0  T
   2    -87.0048863 -0.514799E-05  0.356E-02    0.90       1.0  T
   3    -87.0048875 -0.126985E-05  0.220E-02    0.90       1.0  T
   4    -87.0048881 -0.550518E-06  0.788E-03    0.90       1.8  T
   5    -87.0048884 -0.295235E-06  0.298E-03    0.90       4.8  T
   6    -87.0048885 -0.116313E-06  0.140E-03    0.90      10.2  T
   7    -87.0048885 -0.470408E-07  0.477E-04    0.90      30.0  T
   8    -87.0048885 -0.111288E-08  0.241E-04    0.90      59.2  T
     SCC iter.                  ...        0 min,  0.053 sec
     gradient                   ...        0 min,  0.026 sec
 * total energy  :   -86.0774636 Eh     change       -0.1244575E-03 Eh
   gradient norm :     0.0037506 Eh/α   predicted    -0.1075827E-03 ( -13.56%)
   displ. norm   :     0.1379935 α      lambda       -0.4503108E-04
   maximum displ.:     0.0734033 α      in ANC's #12, #8, #14, ...

........................................................................
.............................. CYCLE   27 ..............................
........................................................................

 iter      E             dE          RMSdq      gap      omega  full diag
   1    -87.0049563 -0.870050E+02  0.346E-02    0.90       0.0  T
   2    -87.0049576 -0.121436E-05  0.201E-02    0.90       1.0  T
   3    -87.0049579 -0.374242E-06  0.119E-02    0.90       1.2  T
   4    -87.0049581 -0.138188E-06  0.304E-03    0.90       4.7  T
   5    -87.0049581 -0.185815E-07  0.144E-03    0.90       9.9  T
   6    -87.0049581 -0.141817E-07  0.694E-04    0.90      20.6  T
   7    -87.0049581 -0.779642E-08  0.287E-04    0.90      49.7  T
     SCC iter.                  ...        0 min,  0.046 sec
     gradient                   ...        0 min,  0.025 sec
 * total energy  :   -86.0774988 Eh     change       -0.3524203E-04 Eh
   gradient norm :     0.0041975 Eh/α   predicted    -0.2294470E-04 ( -34.89%)
   displ. norm   :     0.1797076 α      lambda       -0.7579545E-04
   maximum displ.:     0.0966208 α      in ANC's #8, #12, #14, ...

........................................................................
.............................. CYCLE   28 ..............................
........................................................................

 iter      E             dE          RMSdq      gap      omega  full diag
   1    -87.0064089 -0.870064E+02  0.580E-02    0.90       0.0  T
   2    -87.0064116 -0.267132E-05  0.362E-02    0.90       1.0  T
   3    -87.0064129 -0.137484E-05  0.197E-02    0.90       1.0  T
   4    -87.0064132 -0.292493E-06  0.380E-03    0.90       3.8  T
   5    -87.0064133 -0.832924E-07  0.200E-03    0.90       7.2  T
   6    -87.0064134 -0.623825E-07  0.741E-04    0.90      19.3  T
   7    -87.0064134 -0.244906E-08  0.461E-04    0.90      31.0  T
     SCC iter.                  ...        0 min,  0.045 sec
     gradient                   ...        0 min,  0.025 sec
 * total energy  :   -86.0775545 Eh     change       -0.5566434E-04 Eh
   gradient norm :     0.0032798 Eh/α   predicted    -0.3912292E-04 ( -29.72%)
   displ. norm   :     0.1624947 α      lambda       -0.5889567E-04
   maximum displ.:     0.0921483 α      in ANC's #8, #12, #5, ...

........................................................................
.............................. CYCLE   29 ..............................
........................................................................

 iter      E             dE          RMSdq      gap      omega  full diag
   1    -87.0073672 -0.870074E+02  0.701E-02    0.89       0.0  T
   2    -87.0073704 -0.324358E-05  0.455E-02    0.89       1.0  T
   3    -87.0073726 -0.213209E-05  0.227E-02    0.89       1.0  T
   4    -87.0073728 -0.287803E-06  0.516E-03    0.89       2.8  T
   5    -87.0073729 -0.703984E-07  0.296E-03    0.89       4.8  T
   6    -87.0073730 -0.118406E-06  0.109E-03    0.89      13.1  T
   7    -87.0073730 -0.119780E-07  0.468E-04    0.89      30.5  T
   8    -87.0073730 -0.149473E-08  0.139E-04    0.89     102.9  T
     SCC iter.                  ...        0 min,  0.052 sec
     gradient                   ...        0 min,  0.025 sec
 * total energy  :   -86.0775975 Eh     change       -0.4300586E-04 Eh
   gradient norm :     0.0024880 Eh/α   predicted    -0.3022714E-04 ( -29.71%)
   displ. norm   :     0.1735635 α      lambda       -0.4586050E-04
   maximum displ.:     0.0967465 α      in ANC's #8, #12, #5, ...

........................................................................
.............................. CYCLE   30 ..............................
........................................................................

 iter      E             dE          RMSdq      gap      omega  full diag
   1    -87.0073970 -0.870074E+02  0.843E-02    0.89       0.0  T
   2    -87.0074012 -0.420507E-05  0.553E-02    0.89       1.0  T
   3    -87.0074045 -0.327492E-05  0.255E-02    0.89       1.0  T
   4    -87.0074048 -0.284399E-06  0.667E-03    0.89       2.1  T
   5    -87.0074049 -0.141541E-06  0.352E-03    0.89       4.1  T
   6    -87.0074051 -0.169490E-06  0.136E-03    0.89      10.5  T
   7    -87.0074051 -0.182493E-07  0.477E-04    0.89      29.9  T
   8    -87.0074051 -0.151920E-08  0.162E-04    0.89      88.1  T
     SCC iter.                  ...        0 min,  0.052 sec
     gradient                   ...        0 min,  0.025 sec
 * total energy  :   -86.0776324 Eh     change       -0.3491394E-04 Eh
   gradient norm :     0.0025406 Eh/α   predicted    -0.2362255E-04 ( -32.34%)
   displ. norm   :     0.1952361 α      lambda       -0.4699446E-04
   maximum displ.:     0.1042359 α      in ANC's #8, #4, #5, ...

........................................................................
.............................. CYCLE   31 ..............................
........................................................................

 iter      E             dE          RMSdq      gap      omega  full diag
   1    -87.0070955 -0.870071E+02  0.104E-01    0.88       0.0  T
   2    -87.0071013 -0.574015E-05  0.688E-02    0.88       1.0  T
   3    -87.0071065 -0.521062E-05  0.293E-02    0.88       1.0  T
   4    -87.0071068 -0.287110E-06  0.841E-03    0.88       1.7  T
   5    -87.0071071 -0.299457E-06  0.387E-03    0.88       3.7  T
   6    -87.0071073 -0.214334E-06  0.157E-03    0.88       9.1  T
   7    -87.0071073 -0.235805E-07  0.519E-04    0.88      27.5  T
   8    -87.0071073 -0.211500E-08  0.183E-04    0.88      77.9  T
     SCC iter.                  ...        0 min,  0.052 sec
     gradient                   ...        0 min,  0.025 sec
 * total energy  :   -86.0776690 Eh     change       -0.3663138E-04 Eh
   gradient norm :     0.0030751 Eh/α   predicted    -0.2439541E-04 ( -33.40%)
   displ. norm   :     0.2443902 α      lambda       -0.5503768E-04
   maximum displ.:     0.1230363 α      in ANC's #8, #4, #5, ...

........................................................................
.............................. CYCLE   32 ..............................
........................................................................

 iter      E             dE          RMSdq      gap      omega  full diag
   1    -87.0063150 -0.870063E+02  0.135E-01    0.87       0.0  T
   2    -87.0063240 -0.899933E-05  0.894E-02    0.87       1.0  T
   3    -87.0063329 -0.886325E-05  0.358E-02    0.87       1.0  T
   4    -87.0063332 -0.352921E-06  0.109E-02    0.87       1.3  T
   5    -87.0063338 -0.610326E-06  0.418E-03    0.87       3.4  T
   6    -87.0063341 -0.284359E-06  0.158E-03    0.87       9.0  T
   7    -87.0063342 -0.184668E-07  0.643E-04    0.87      22.2  T
   8    -87.0063342 -0.385735E-08  0.207E-04    0.87      69.1  T
     SCC iter.                  ...        0 min,  0.052 sec
     gradient                   ...        0 min,  0.025 sec
 * total energy  :   -86.0777129 Eh     change       -0.4388886E-04 Eh
   gradient norm :     0.0038117 Eh/α   predicted    -0.2916303E-04 ( -33.55%)
   displ. norm   :     0.3066250 α      lambda       -0.7722952E-04
   maximum displ.:     0.1412508 α      in ANC's #4, #8, #5, ...

........................................................................
.............................. CYCLE   33 ..............................
........................................................................

 iter      E             dE          RMSdq      gap      omega  full diag
   1    -87.0061423 -0.870061E+02  0.176E-01    0.85       0.0  T
   2    -87.0061568 -0.145030E-04  0.119E-01    0.86       1.0  T
   3    -87.0061729 -0.160846E-04  0.417E-02    0.86       1.0  T
   4    -87.0061732 -0.298254E-06  0.146E-02    0.86       1.0  T
   5    -87.0061741 -0.937296E-06  0.527E-03    0.86       2.7  T
   6    -87.0061746 -0.483543E-06  0.181E-03    0.86       7.9  T
   7    -87.0061746 -0.262930E-07  0.782E-04    0.86      18.3  T
   8    -87.0061746 -0.543388E-08  0.278E-04    0.86      51.4  T
     SCC iter.                  ...        0 min,  0.052 sec
     gradient                   ...        0 min,  0.025 sec
 * total energy  :   -86.0777727 Eh     change       -0.5972908E-04 Eh
   gradient norm :     0.0044009 Eh/α   predicted    -0.4224564E-04 ( -29.27%)
   displ. norm   :     0.4281038 α      lambda       -0.9730781E-04
   maximum displ.:     0.1949450 α      in ANC's #8, #4, #1, ...

........................................................................
.............................. CYCLE   34 ..............................
........................................................................

 iter      E             dE          RMSdq      gap      omega  full diag
   1    -87.0031510 -0.870032E+02  0.242E-01    0.83       0.0  T
   2    -87.0031795 -0.285305E-04  0.162E-01    0.84       1.0  T
   3    -87.0032086 -0.290770E-04  0.584E-02    0.84       1.0  T
   4    -87.0032096 -0.106896E-05  0.208E-02    0.84       1.0  T
   5    -87.0032111 -0.144707E-05  0.742E-03    0.84       1.9  T
   6    -87.0032119 -0.862799E-06  0.270E-03    0.84       5.3  T
   7    -87.0032120 -0.670552E-07  0.114E-03    0.84      12.5  T
   8    -87.0032120 -0.124730E-07  0.457E-04    0.84      31.2  T
   9    -87.0032120 -0.244104E-08  0.167E-04    0.84      85.4  T
     SCC iter.                  ...        0 min,  0.058 sec
     gradient                   ...        0 min,  0.025 sec
 * total energy  :   -86.0778327 Eh     change       -0.6004665E-04 Eh
   gradient norm :     0.0066988 Eh/α   predicted    -0.5757217E-04 (  -4.12%)
   displ. norm   :     0.3389890 α      lambda       -0.1679641E-03
   maximum displ.:     0.1766471 α      in ANC's #4, #9, #1, ...

........................................................................
.............................. CYCLE   35 ..............................
........................................................................

 iter      E             dE          RMSdq      gap      omega  full diag
   1    -87.0067278 -0.870067E+02  0.193E-01    0.81       0.0  T
   2    -87.0067472 -0.193409E-04  0.132E-01    0.81       1.0  T
   3    -87.0067695 -0.222875E-04  0.344E-02    0.81       1.0  T
   4    -87.0067699 -0.446641E-06  0.166E-02    0.81       1.0  T
   5    -87.0067702 -0.253208E-06  0.620E-03    0.81       2.3  T
   6    -87.0067706 -0.422967E-06  0.281E-03    0.81       5.1  T
   7    -87.0067707 -0.109315E-06  0.864E-04    0.81      16.5  T
   8    -87.0067707 -0.997849E-08  0.409E-04    0.81      34.9  T
     SCC iter.                  ...        0 min,  0.052 sec
     gradient                   ...        0 min,  0.025 sec
 * total energy  :   -86.0779157 Eh     change       -0.8300520E-04 Eh
   gradient norm :     0.0068037 Eh/α   predicted    -0.9364492E-04 (  12.82%)
   displ. norm   :     0.2733550 α      lambda       -0.9757869E-04
   maximum displ.:     0.1247363 α      in ANC's #4, #8, #1, ...

........................................................................
.............................. CYCLE   36 ..............................
........................................................................

 iter      E             dE          RMSdq      gap      omega  full diag
   1    -87.0053069 -0.870053E+02  0.158E-01    0.79       0.0  T
   2    -87.0053198 -0.128913E-04  0.106E-01    0.80       1.0  T
   3    -87.0053325 -0.126806E-04  0.356E-02    0.80       1.0  T
   4    -87.0053331 -0.588974E-06  0.143E-02    0.80       1.0  T
   5    -87.0053335 -0.402764E-06  0.467E-03    0.80       3.1  T
   6    -87.0053337 -0.231801E-06  0.211E-03    0.80       6.8  T
   7    -87.0053338 -0.552745E-07  0.773E-04    0.80      18.5  T
   8    -87.0053338 -0.693461E-08  0.321E-04    0.80      44.6  T
     SCC iter.                  ...        0 min,  0.052 sec
     gradient                   ...        0 min,  0.025 sec
 * total energy  :   -86.0779950 Eh     change       -0.7925666E-04 Eh
   gradient norm :     0.0048801 Eh/α   predicted    -0.5244847E-04 ( -33.82%)
   displ. norm   :     0.3290533 α      lambda       -0.2011798E-03
   maximum displ.:     0.1359297 α      in ANC's #4, #1, #9, ...

........................................................................
.............................. CYCLE   37 ..............................
........................................................................

 iter      E             dE          RMSdq      gap      omega  full diag
   1    -87.0069517 -0.870070E+02  0.180E-01    0.77       0.0  T
   2    -87.0069725 -0.207936E-04  0.118E-01    0.78       1.0  T
   3    -87.0069894 -0.168634E-04  0.364E-02    0.78       1.0  T
   4    -87.0069903 -0.913767E-06  0.190E-02    0.78       1.0  T
   5    -87.0069904 -0.992987E-07  0.624E-03    0.78       2.3  T
   6    -87.0069904 -0.382224E-07  0.427E-03    0.78       3.3  T
   7    -87.0069907 -0.285267E-06  0.101E-03    0.78      14.1  T
   8    -87.0069907 -0.987390E-08  0.397E-04    0.78      36.0  T
   9    -87.0069907 -0.196006E-08  0.170E-04    0.78      84.0  T
     SCC iter.                  ...        0 min,  0.059 sec
     gradient                   ...        0 min,  0.025 sec
 * total energy  :   -86.0781118 Eh     change       -0.1168565E-03 Eh
   gradient norm :     0.0044850 Eh/α   predicted    -0.1114863E-03 (  -4.60%)
   displ. norm   :     0.2993617 α      lambda       -0.9612088E-04
   maximum displ.:     0.1580969 α      in ANC's #4, #9, #1, ...

........................................................................
.............................. CYCLE   38 ..............................
........................................................................

 iter      E             dE          RMSdq      gap      omega  full diag
   1    -87.0055094 -0.870055E+02  0.183E-01    0.76       0.0  T
   2    -87.0055270 -0.175390E-04  0.123E-01    0.76       1.0  T
   3    -87.0055451 -0.181540E-04  0.351E-02    0.76       1.0  T
   4    -87.0055460 -0.855724E-06  0.158E-02    0.76       1.0  T
   5    -87.0055462 -0.257833E-06  0.467E-03    0.76       3.1  T
   6    -87.0055464 -0.195001E-06  0.218E-03    0.76       6.6  T
   7    -87.0055465 -0.567948E-07  0.789E-04    0.76      18.1  T
   8    -87.0055465 -0.618222E-08  0.383E-04    0.76      37.3  T
     SCC iter.                  ...        0 min,  0.052 sec
     gradient                   ...        0 min,  0.025 sec
 * total energy  :   -86.0781718 Eh     change       -0.6002315E-04 Eh
   gradient norm :     0.0089455 Eh/α   predicted    -0.5236837E-04 ( -12.75%)
   displ. norm   :     0.2706053 α      lambda       -0.9739186E-04
   maximum displ.:     0.1420020 α      in ANC's #4, #1, #9, ...

........................................................................
.............................. CYCLE   39 ..............................
........................................................................

 iter      E             dE          RMSdq      gap      omega  full diag
   1    -87.0051188 -0.870051E+02  0.165E-01    0.74       0.0  T
   2    -87.0051332 -0.144308E-04  0.112E-01    0.75       1.0  T
   3    -87.0051490 -0.158106E-04  0.253E-02    0.75       1.0  T
   4    -87.0051496 -0.611908E-06  0.121E-02    0.75       1.2  T
   5    -87.0051497 -0.389234E-07  0.368E-03    0.75       3.9  T
   6    -87.0051498 -0.126360E-06  0.135E-03    0.75      10.6  T
   7    -87.0051498 -0.217486E-07  0.549E-04    0.75      26.0  T
   8    -87.0051498 -0.184920E-08  0.311E-04    0.75      46.0  T
     SCC iter.                  ...        0 min,  0.053 sec
     gradient                   ...        0 min,  0.025 sec
 * total energy  :   -86.0782430 Eh     change       -0.7112770E-04 Eh
   gradient norm :     0.0034078 Eh/α   predicted    -0.5226405E-04 ( -26.52%)
   displ. norm   :     0.3291145 α      lambda       -0.8507932E-04
   maximum displ.:     0.1770705 α      in ANC's #4, #14, #1, ...

........................................................................
.............................. CYCLE   40 ..............................
........................................................................

 iter      E             dE          RMSdq      gap      omega  full diag
   1    -87.0046244 -0.870046E+02  0.209E-01    0.73       0.0  T
   2    -87.0046464 -0.219439E-04  0.146E-01    0.74       1.0  T
   3    -87.0046734 -0.269985E-04  0.334E-02    0.74       1.0  T
   4    -87.0046743 -0.967878E-06  0.159E-02    0.74       1.0  T
   5    -87.0046745 -0.205422E-06  0.386E-03    0.74       3.7  T
   6    -87.0046746 -0.940543E-07  0.141E-03    0.74      10.1  T
   7    -87.0046746 -0.946210E-08  0.641E-04    0.74      22.3  T
   8    -87.0046746 -0.218148E-08  0.333E-04    0.74      42.9  T
     SCC iter.                  ...        0 min,  0.052 sec
     gradient                   ...        0 min,  0.025 sec
 * total energy  :   -86.0783065 Eh     change       -0.6352780E-04 Eh
   gradient norm :     0.0033924 Eh/α   predicted    -0.4715153E-04 ( -25.78%)
   displ. norm   :     0.4025383 α      lambda       -0.8163540E-04
   maximum displ.:     0.2183490 α      in ANC's #4, #1, #14, ...

........................................................................
.............................. CYCLE   41 ..............................
........................................................................

 iter      E             dE          RMSdq      gap      omega  full diag
   1    -87.0038611 -0.870039E+02  0.253E-01    0.71       0.0  T
   2    -87.0038893 -0.282126E-04  0.186E-01    0.72       1.0  T
   3    -87.0039322 -0.429204E-04  0.413E-02    0.72       1.0  T
   4    -87.0039335 -0.130009E-05  0.194E-02    0.72       1.0  T
   5    -87.0039339 -0.380034E-06  0.475E-03    0.72       3.0  T
   6    -87.0039341 -0.126332E-06  0.184E-03    0.72       7.8  T
   7    -87.0039341 -0.967401E-08  0.847E-04    0.72      16.9  T
   8    -87.0039341 -0.438611E-08  0.364E-04    0.72      39.3  T
     SCC iter.                  ...        0 min,  0.052 sec
     gradient                   ...        0 min,  0.025 sec
 * total energy  :   -86.0783662 Eh     change       -0.5974404E-04 Eh
   gradient norm :     0.0038854 Eh/α   predicted    -0.4743299E-04 ( -20.61%)
   displ. norm   :     0.3578375 α      lambda       -0.9974449E-04
   maximum displ.:     0.2104105 α      in ANC's #4, #14, #9, ...

........................................................................
.............................. CYCLE   42 ..............................
........................................................................

 iter      E             dE          RMSdq      gap      omega  full diag
   1    -87.0084119 -0.870084E+02  0.221E-01    0.70       0.0  T
   2    -87.0084316 -0.197006E-04  0.169E-01    0.71       1.0  T
   3    -87.0084707 -0.390048E-04  0.317E-02    0.71       1.0  T
   4    -87.0084714 -0.785196E-06  0.159E-02    0.71       1.0  T
   5    -87.0084716 -0.127897E-06  0.465E-03    0.71       3.1  T
   6    -87.0084717 -0.127048E-06  0.223E-03    0.71       6.4  T
   7    -87.0084718 -0.621523E-07  0.125E-03    0.71      11.4  T
   8    -87.0084718 -0.134963E-07  0.312E-04    0.71      45.8  T
   9    -87.0084718 -0.378193E-09  0.207E-04    0.71      69.0  T
     SCC iter.                  ...        0 min,  0.058 sec
     gradient                   ...        0 min,  0.025 sec
 * total energy  :   -86.0784149 Eh     change       -0.4861460E-04 Eh
   gradient norm :     0.0047517 Eh/α   predicted    -0.5626007E-04 (  15.73%)
   displ. norm   :     0.4608129 α      lambda       -0.1014823E-03
   maximum displ.:     0.2566007 α      in ANC's #4, #1, #14, ...
 * RMSD in coord.:     0.6908909 α      energy gain  -0.1620221E-02 Eh

generating ANC from model Hessian ...
Using Lindh-Hessian (1995)
 Shifting diagonal of input Hessian by    1.0045214371127530E-002
 Lowest  eigenvalues of input Hessian
    0.010000    0.010027    0.000000    0.000000    0.000000    0.000000
    0.000000    0.000000    0.010050    0.010171    0.010510    0.010542
    0.010582    0.010648    0.010658    0.011408    0.011517    0.011625
 Highest eigenvalues
    1.796898    1.811547    2.568529    2.569493    2.579453    2.779808


........................................................................
.............................. CYCLE   43 ..............................
........................................................................

 iter      E             dE          RMSdq      gap      omega  full diag
   1    -87.0045326 -0.870045E+02  0.302E-01    0.69       0.0  T
   2    -87.0045665 -0.339229E-04  0.234E-01    0.70       1.0  T
   3    -87.0046327 -0.661454E-04  0.507E-02    0.70       1.0  T
   4    -87.0046343 -0.161350E-05  0.234E-02    0.70       1.0  T
   5    -87.0046351 -0.756416E-06  0.623E-03    0.70       2.3  T
   6    -87.0046352 -0.181765E-06  0.220E-03    0.70       6.5  T
   7    -87.0046352 -0.359101E-08  0.112E-03    0.70      12.7  T
   8    -87.0046352 -0.797318E-08  0.419E-04    0.70      34.1  T
   9    -87.0046352 -0.122409E-08  0.118E-04    0.70     121.5  T
     SCC iter.                  ...        0 min,  0.058 sec
     gradient                   ...        0 min,  0.025 sec
 * total energy  :   -86.0784755 Eh     change       -0.6063639E-04 Eh
   gradient norm :     0.0071434 Eh/α   predicted     0.0000000E+00 (-100.00%)
   displ. norm   :     0.0451321 α      lambda       -0.3165007E-04
   maximum displ.:     0.0221366 α      in ANC's #4, #16, #7, ...

........................................................................
.............................. CYCLE   44 ..............................
........................................................................

 iter      E             dE          RMSdq      gap      omega  full diag
   1    -87.0068358 -0.870068E+02  0.415E-02    0.70       0.0  T
   2    -87.0068367 -0.963969E-06  0.278E-02    0.70       1.0  T
   3    -87.0068379 -0.115445E-05  0.141E-02    0.70       1.0  T
   4    -87.0068380 -0.988835E-07  0.380E-03    0.70       3.8  T
   5    -87.0068381 -0.107632E-06  0.232E-03    0.70       6.1  T
   6    -87.0068382 -0.117380E-06  0.750E-04    0.70      19.1  T
   7    -87.0068382 -0.282638E-08  0.290E-04    0.70      49.3  T
     SCC iter.                  ...        0 min,  0.045 sec
     gradient                   ...        0 min,  0.025 sec
 * total energy  :   -86.0785212 Eh     change       -0.4574688E-04 Eh
   gradient norm :     0.0030749 Eh/α   predicted    -0.3710209E-04 ( -18.90%)
   displ. norm   :     0.0962936 α      lambda       -0.9305707E-04
   maximum displ.:     0.0511556 α      in ANC's #4, #16, #19, ...

........................................................................
.............................. CYCLE   45 ..............................
........................................................................

 iter      E             dE          RMSdq      gap      omega  full diag
   1    -87.0093706 -0.870094E+02  0.695E-02    0.71       0.0  T
   2    -87.0093728 -0.221130E-05  0.506E-02    0.71       1.0  T
   3    -87.0093768 -0.395766E-05  0.185E-02    0.71       1.0  T
   4    -87.0093768 -0.855162E-08  0.709E-03    0.71       2.0  T
   5    -87.0093769 -0.433126E-07  0.394E-03    0.71       3.6  T
   6    -87.0093772 -0.314591E-06  0.157E-03    0.71       9.1  T
   7    -87.0093772 -0.266114E-07  0.501E-04    0.71      28.5  T
   8    -87.0093772 -0.208358E-08  0.180E-04    0.71      79.4  T
     SCC iter.                  ...        0 min,  0.052 sec
     gradient                   ...        0 min,  0.025 sec
 * total energy  :   -86.0785360 Eh     change       -0.1476743E-04 Eh
   gradient norm :     0.0091744 Eh/α   predicted    -0.4697725E-04 ( 218.11%)
   displ. norm   :     0.0597153 α      lambda       -0.8537238E-04
   maximum displ.:     0.0320640 α      in ANC's #4, #7, #19, ...

........................................................................
.............................. CYCLE   46 ..............................
........................................................................

 iter      E             dE          RMSdq      gap      omega  full diag
   1    -87.0082587 -0.870083E+02  0.556E-02    0.72       0.0  T
   2    -87.0082605 -0.185536E-05  0.356E-02    0.72       1.0  T
   3    -87.0082616 -0.105324E-05  0.208E-02    0.72       1.0  T
   4    -87.0082620 -0.430707E-06  0.367E-03    0.72       3.9  T
   5    -87.0082620 -0.427709E-07  0.120E-03    0.72      11.9  T
   6    -87.0082621 -0.470179E-08  0.877E-04    0.72      16.3  T
   7    -87.0082621 -0.129319E-07  0.266E-04    0.72      53.7  T
     SCC iter.                  ...        0 min,  0.045 sec
     gradient                   ...        0 min,  0.025 sec
 * total energy  :   -86.0785919 Eh     change       -0.5591371E-04 Eh
   gradient norm :     0.0029472 Eh/α   predicted    -0.4285314E-04 ( -23.36%)
   displ. norm   :     0.0835111 α      lambda       -0.3887049E-04
   maximum displ.:     0.0495135 α      in ANC's #4, #7, #15, ...

........................................................................
.............................. CYCLE   47 ..............................
........................................................................

 iter      E             dE          RMSdq      gap      omega  full diag
   1    -87.0073880 -0.870074E+02  0.542E-02    0.72       0.0  T
   2    -87.0073895 -0.152698E-05  0.401E-02    0.72       1.0  T
   3    -87.0073917 -0.225760E-05  0.138E-02    0.72       1.0  T
   4    -87.0073918 -0.101879E-06  0.456E-03    0.72       3.1  T
   5    -87.0073919 -0.434931E-07  0.175E-03    0.72       8.2  T
   6    -87.0073919 -0.438221E-07  0.914E-04    0.72      15.6  T
   7    -87.0073919 -0.116738E-07  0.334E-04    0.72      42.8  T
     SCC iter.                  ...        0 min,  0.046 sec
     gradient                   ...        0 min,  0.025 sec
 * total energy  :   -86.0786230 Eh     change       -0.3105111E-04 Eh
   gradient norm :     0.0023245 Eh/α   predicted    -0.1957358E-04 ( -36.96%)
   displ. norm   :     0.1743403 α      lambda       -0.6341152E-04
   maximum displ.:     0.1008530 α      in ANC's #4, #7, #15, ...

........................................................................
.............................. CYCLE   48 ..............................
........................................................................

 iter      E             dE          RMSdq      gap      omega  full diag
   1    -87.0063422 -0.870063E+02  0.102E-01    0.74       0.0  T
   2    -87.0063476 -0.546254E-05  0.769E-02    0.74       1.0  T
   3    -87.0063566 -0.896906E-05  0.215E-02    0.74       1.0  T
   4    -87.0063568 -0.181681E-06  0.864E-03    0.74       1.7  T
   5    -87.0063569 -0.786695E-07  0.359E-03    0.73       4.0  T
   6    -87.0063571 -0.222549E-06  0.160E-03    0.74       8.9  T
   7    -87.0063571 -0.347036E-07  0.600E-04    0.74      23.8  T
   8    -87.0063571 -0.248708E-08  0.251E-04    0.74      56.8  T
     SCC iter.                  ...        0 min,  0.052 sec
     gradient                   ...        0 min,  0.025 sec
 * total energy  :   -86.0786735 Eh     change       -0.5055329E-04 Eh
   gradient norm :     0.0051208 Eh/α   predicted    -0.3267046E-04 ( -35.37%)
   displ. norm   :     0.2547958 α      lambda       -0.7896226E-04
   maximum displ.:     0.1484056 α      in ANC's #4, #7, #15, ...

........................................................................
.............................. CYCLE   49 ..............................
........................................................................

 iter      E             dE          RMSdq      gap      omega  full diag
   1    -87.0055972 -0.870056E+02  0.144E-01    0.76       0.0  T
   2    -87.0056085 -0.112729E-04  0.108E-01    0.75       1.0  T
   3    -87.0056261 -0.176155E-04  0.277E-02    0.75       1.0  T
   4    -87.0056264 -0.272419E-06  0.118E-02    0.75       1.2  T
   5    -87.0056265 -0.113165E-06  0.488E-03    0.75       2.9  T
   6    -87.0056269 -0.417191E-06  0.205E-03    0.75       7.0  T
   7    -87.0056270 -0.597542E-07  0.768E-04    0.75      18.6  T
   8    -87.0056270 -0.313264E-08  0.355E-04    0.75      40.3  T
     SCC iter.                  ...        0 min,  0.052 sec
     gradient                   ...        0 min,  0.025 sec
 * total energy  :   -86.0787362 Eh     change       -0.6271228E-04 Eh
   gradient norm :     0.0064023 Eh/α   predicted    -0.4204869E-04 ( -32.95%)
   displ. norm   :     0.2801087 α      lambda       -0.8522449E-04
   maximum displ.:     0.1681235 α      in ANC's #4, #7, #15, ...

........................................................................
.............................. CYCLE   50 ..............................
........................................................................

 iter      E             dE          RMSdq      gap      omega  full diag
   1    -87.0056376 -0.870056E+02  0.155E-01    0.77       0.0  T
   2    -87.0056513 -0.136433E-04  0.115E-01    0.77       1.0  T
   3    -87.0056704 -0.191786E-04  0.289E-02    0.77       1.0  T
   4    -87.0056707 -0.306942E-06  0.123E-02    0.77       1.2  T
   5    -87.0056710 -0.208666E-06  0.448E-03    0.77       3.2  T
   6    -87.0056713 -0.298664E-06  0.188E-03    0.77       7.6  T
   7    -87.0056713 -0.538114E-07  0.735E-04    0.77      19.4  T
   8    -87.0056713 -0.224146E-08  0.382E-04    0.77      37.4  T
     SCC iter.                  ...        0 min,  0.052 sec
     gradient                   ...        0 min,  0.025 sec
 * total energy  :   -86.0788058 Eh     change       -0.6956086E-04 Eh
   gradient norm :     0.0054224 Eh/α   predicted    -0.4595627E-04 ( -33.93%)
   displ. norm   :     0.2984124 α      lambda       -0.1018965E-03
   maximum displ.:     0.1862613 α      in ANC's #4, #7, #16, ...

........................................................................
.............................. CYCLE   51 ..............................
........................................................................

 iter      E             dE          RMSdq      gap      omega  full diag
   1    -87.0065269 -0.870065E+02  0.162E-01    0.79       0.0  T
   2    -87.0065421 -0.151653E-04  0.119E-01    0.79       1.0  T
   3    -87.0065612 -0.191186E-04  0.313E-02    0.79       1.0  T
   4    -87.0065616 -0.378410E-06  0.125E-02    0.79       1.1  T
   5    -87.0065619 -0.373573E-06  0.375E-03    0.79       3.8  T
   6    -87.0065621 -0.118019E-06  0.147E-03    0.79       9.8  T
   7    -87.0065621 -0.251347E-07  0.692E-04    0.79      20.6  T
   8    -87.0065621 -0.177835E-08  0.410E-04    0.79      34.9  T
     SCC iter.                  ...        0 min,  0.052 sec
     gradient                   ...        0 min,  0.025 sec
 * total energy  :   -86.0788897 Eh     change       -0.8387792E-04 Eh
   gradient norm :     0.0034835 Eh/α   predicted    -0.5548941E-04 ( -33.85%)
   displ. norm   :     0.3213016 α      lambda       -0.1136405E-03
   maximum displ.:     0.2064723 α      in ANC's #4, #7, #6, ...

........................................................................
.............................. CYCLE   52 ..............................
........................................................................

 iter      E             dE          RMSdq      gap      omega  full diag
   1    -87.0074872 -0.870075E+02  0.169E-01    0.80       0.0  T
   2    -87.0075033 -0.161327E-04  0.123E-01    0.80       1.0  T
   3    -87.0075225 -0.191280E-04  0.364E-02    0.80       1.0  T
   4    -87.0075229 -0.476069E-06  0.128E-02    0.80       1.1  T
   5    -87.0075235 -0.591446E-06  0.365E-03    0.80       3.9  T
   6    -87.0075236 -0.690896E-07  0.131E-03    0.80      10.9  T
   7    -87.0075236 -0.913865E-08  0.820E-04    0.80      17.4  T
   8    -87.0075236 -0.666961E-08  0.315E-04    0.80      45.3  T
     SCC iter.                  ...        0 min,  0.052 sec
     gradient                   ...        0 min,  0.025 sec
 * total energy  :   -86.0789815 Eh     change       -0.9186105E-04 Eh
   gradient norm :     0.0025324 Eh/α   predicted    -0.6268711E-04 ( -31.76%)
   displ. norm   :     0.3157000 α      lambda       -0.1035297E-03
   maximum displ.:     0.2060716 α      in ANC's #4, #7, #6, ...

........................................................................
.............................. CYCLE   53 ..............................
........................................................................

 iter      E             dE          RMSdq      gap      omega  full diag
   1    -87.0079490 -0.870079E+02  0.160E-01    0.80       0.0  T
   2    -87.0079618 -0.128120E-04  0.117E-01    0.80       1.0  T
   3    -87.0079785 -0.167071E-04  0.370E-02    0.80       1.0  T
   4    -87.0079785 -0.608312E-07  0.121E-02    0.80       1.2  T
   5    -87.0079796 -0.102701E-05  0.346E-03    0.80       4.1  T
   6    -87.0079797 -0.111369E-06  0.186E-03    0.80       7.7  T
   7    -87.0079797 -0.518151E-07  0.820E-04    0.80      17.4  T
   8    -87.0079797 -0.436080E-08  0.186E-04    0.80      76.9  T
     SCC iter.                  ...        0 min,  0.052 sec
     gradient                   ...        0 min,  0.025 sec
 * total energy  :   -86.0790662 Eh     change       -0.8468230E-04 Eh
   gradient norm :     0.0026329 Eh/α   predicted    -0.5692717E-04 ( -32.78%)
   displ. norm   :     0.3028030 α      lambda       -0.1018304E-03
   maximum displ.:     0.1981699 α      in ANC's #4, #7, #6, ...

........................................................................
.............................. CYCLE   54 ..............................
........................................................................

 iter      E             dE          RMSdq      gap      omega  full diag
   1    -87.0084598 -0.870085E+02  0.152E-01    0.80       0.0  T
   2    -87.0084689 -0.905999E-05  0.113E-01    0.79       1.0  T
   3    -87.0084847 -0.158533E-04  0.343E-02    0.80       1.0  T
   4    -87.0084839  0.854049E-06  0.124E-02    0.80       1.2  T
   5    -87.0084859 -0.198229E-05  0.290E-03    0.80       4.9  T
   6    -87.0084859 -0.831515E-07  0.170E-03    0.80       8.4  T
   7    -87.0084860 -0.126076E-07  0.575E-04    0.80      24.9  T
   8    -87.0084860 -0.307597E-08  0.159E-04    0.80      89.8  T
     SCC iter.                  ...        0 min,  0.052 sec
     gradient                   ...        0 min,  0.025 sec
 * total energy  :   -86.0791534 Eh     change       -0.8721673E-04 Eh
   gradient norm :     0.0032212 Eh/α   predicted    -0.5558398E-04 ( -36.27%)
   displ. norm   :     0.3971832 α      lambda       -0.1390113E-03
[...]
          :.................................................:
          :  # basis functions                 139          :
          :  # atomic orbitals                 137          :
          :  # shells                           77          :
          :  # electrons                       152          :
          :  max. iterations                   250          :
          :  Hamiltonian                  GFN2-xTB          :
          :  restarted?                      false          :
          :  GBSA solvation                  false          :
          :  PC potential                    false          :
          :  electronic temp.          300.0000000     K    :
          :  accuracy                    1.0000000          :
          :  -> integral cutoff          0.2500000E+02      :
          :  -> integral neglect         0.1000000E-07      :
          :  -> SCF convergence          0.1000000E-05 Eh   :
          :  -> wf. convergence          0.1000000E-03 e    :
          :  Broyden damping             0.4000000          :
          ...................................................

 iter      E             dE          RMSdq      gap      omega  full diag
   1    -87.0525278 -0.870525E+02  0.387E-02    0.80       0.0  T
   2    -87.0525290 -0.122303E-05  0.239E-02    0.80       1.0  T
   3    -87.0525298 -0.722794E-06  0.130E-02    0.80       1.1  T
   4    -87.0525298 -0.260493E-07  0.312E-03    0.80       4.6  T
   5    -87.0525299 -0.803846E-07  0.139E-03    0.80      10.3  T
   6    -87.0525299 -0.423478E-07  0.403E-04    0.80      35.5  T
   7    -87.0525299 -0.568861E-09  0.208E-04    0.80      68.7  T

   *** convergence criteria satisfied after 7 iterations ***

         #    Occupation            Energy/Eh            Energy/eV
      -------------------------------------------------------------
         1        2.0000           -0.8371402             -22.7797
       ...           ...                  ...                  ...
        70        2.0000           -0.3598101              -9.7909
        71        2.0000           -0.3579262              -9.7397
        72        2.0000           -0.3342260              -9.0948
        73        2.0000           -0.3306692              -8.9980
        74        2.0000           -0.3047323              -8.2922
        75        2.0000           -0.2954389              -8.0393
        76        2.0000           -0.2931781              -7.9778 (HOMO)
        77        0.0000           -0.2637605              -7.1773 (LUMO)
        78                         -0.2594458              -7.0599
        79                         -0.1968260              -5.3559
        80                         -0.1943861              -5.2895
        81                         -0.1488182              -4.0495
       ...                                ...                  ...
       137                          2.6719916              72.7086
      -------------------------------------------------------------
                  HL-Gap            0.0294176 Eh            0.8005 eV
             Fermi-level           -0.2784323 Eh           -7.5765 eV

 SCC (total)                   0 d,  0 h,  0 min,  0.081 sec
 SCC setup                      ...        0 min,  0.000 sec (  0.311%)
 Dispersion                     ...        0 min,  0.000 sec (  0.345%)
 classical contributions        ...        0 min,  0.000 sec (  0.208%)
 integral evaluation            ...        0 min,  0.008 sec (  9.958%)
 iterations                     ...        0 min,  0.045 sec ( 56.084%)
 molecular gradient             ...        0 min,  0.026 sec ( 32.674%)
 printout                       ...        0 min,  0.000 sec (  0.411%)

         :::::::::::::::::::::::::::::::::::::::::::::::::::::
         ::                     SUMMARY                     ::
         :::::::::::::::::::::::::::::::::::::::::::::::::::::
         :: total energy             -86.112957852693 Eh    ::
         :: gradient norm              0.002280001447 Eh/a0 ::
         :: HOMO-LUMO gap              0.800494922809 eV    ::
         ::.................................................::
         :: SCC energy               -87.052529915282 Eh    ::
         :: -> isotropic ES            0.096805213168 Eh    ::
         :: -> anisotropic ES         -0.013502658777 Eh    ::
         :: -> anisotropic XC          0.038130067727 Eh    ::
         :: -> dispersion             -0.059234961587 Eh    ::
         :: repulsion energy           0.937315760902 Eh    ::
         :: add. restraining           0.000000000000 Eh    ::
         :: total charge               0.000000000016 e     ::
         :::::::::::::::::::::::::::::::::::::::::::::::::::::

           -------------------------------------------------
          |                Property Printout                |
           -------------------------------------------------

    * Orbital Energies and Occupations

         #    Occupation            Energy/Eh            Energy/eV
      -------------------------------------------------------------
         1        2.0000           -0.8371402             -22.7797
       ...           ...                  ...                  ...
        64        2.0000           -0.4266923             -11.6109
        65        2.0000           -0.4264189             -11.6034
        66        2.0000           -0.4246265             -11.5547
        67        2.0000           -0.4145171             -11.2796
        68        2.0000           -0.4064997             -11.0614
        69        2.0000           -0.4039694             -10.9926
        70        2.0000           -0.3598101              -9.7909
        71        2.0000           -0.3579262              -9.7397
        72        2.0000           -0.3342260              -9.0948
        73        2.0000           -0.3306692              -8.9980
        74        2.0000           -0.3047323              -8.2922
        75        2.0000           -0.2954389              -8.0393
        76        2.0000           -0.2931781              -7.9778 (HOMO)
        77        0.0000           -0.2637605              -7.1773 (LUMO)
        78                         -0.2594458              -7.0599
        79                         -0.1968260              -5.3559
        80                         -0.1943861              -5.2895
        81                         -0.1488182              -4.0495
        82                         -0.1282199              -3.4890
        83                         -0.1260908              -3.4311
        84                         -0.1084352              -2.9507
        85                         -0.0728030              -1.9811
        86                         -0.0219935              -0.5985
        87                         -0.0044670              -0.1216
       ...                                ...                  ...
       137                          2.6719916              72.7086
      -------------------------------------------------------------
                  HL-Gap            0.0294176 Eh            0.8005 eV
             Fermi-level           -0.2784323 Eh           -7.5765 eV

     #   Z          covCN         q      C6AA      α(0)
     1   6 c        3.035    -0.073    29.778     8.951
     2   1 h        0.926    -0.002     3.084     2.746
     3   6 c        3.041    -0.078    29.915     8.971
     4   1 h        0.926    -0.012     3.274     2.829
     5   6 c        3.102    -0.069    29.592     8.914
     6   6 c        3.051    -0.070    29.682     8.935
     7   1 h        0.926    -0.004     3.130     2.767
     8   6 c        3.753    -0.140    23.259     6.877
     9   1 h        0.926     0.037     2.493     2.469
    10   6 c        3.758    -0.075    21.991     6.686
    11   1 h        0.926     0.046     2.367     2.406
    12   6 c        3.777    -0.093    22.309     6.729
    13   1 h        0.926     0.024     2.674     2.557
    14   6 c        3.759    -0.082    22.109     6.703
    15   1 h        0.926     0.039     2.466     2.456
    16   6 c        3.768    -0.089    22.234     6.720
    17   1 h        0.926     0.037     2.490     2.467
    18   6 c        3.753    -0.076    22.010     6.690
    19   1 h        0.926     0.040     2.449     2.447
    20  26 fe       5.784     0.586   119.748    19.298
    21   6 c        3.758    -0.047    21.474     6.607
    22   1 h        0.924     0.059     2.213     2.326
    23   1 h        0.925     0.082     1.959     2.189
    24   7 n        3.620     0.135    18.949     6.465
    25   6 c        3.723    -0.109    22.695     6.803
    26   1 h        0.925     0.130     1.532     1.935
    27   1 h        0.925     0.106     1.727     2.055
    28   1 h        0.925     0.077     2.005     2.215
    29   6 c        3.722    -0.094    22.403     6.760
    30   1 h        0.925     0.081     1.970     2.195
    31   1 h        0.925     0.080     1.977     2.199
    32   1 h        0.924     0.117     1.640     2.002
    33   6 c        3.723    -0.090    22.339     6.750
    34   1 h        0.925     0.081     1.968     2.194
    35   1 h        0.925     0.081     1.964     2.192
    36   1 h        0.925     0.093     1.845     2.124
    37  15 p        4.792     1.267   114.882    19.254
    38   9 f        1.226    -0.330    12.658     4.204
    39   9 f        0.742    -0.322    12.579     4.189
    40   9 f        0.741    -0.319    12.546     4.183
    41   9 f        0.741    -0.326    12.622     4.196
    42   9 f        0.741    -0.350    12.917     4.245
    43   9 f        1.210    -0.356    12.973     4.256
    44   6 c        3.754    -0.122    22.888     6.822
    45   6 c        1.890     0.134    27.845     8.523
    46   7 n        0.911    -0.281    27.245     7.549
    47   1 h        0.925     0.099     1.794     2.095
    48   1 h        0.925     0.100     1.783     2.088
    49   1 h        0.925     0.078     2.005     2.214

 Mol. C6AA /au·bohr⁶  :      27133.978935
 Mol. C8AA /au·bohr⁸  :     735335.299901
 Mol. α(0) /au        :        249.445068


Wiberg/Mayer (AO) data.
largest (>0.10) Wiberg bond orders for each atom

 ---------------------------------------------------------------------------
     #   Z sym  total        # sym  WBO       # sym  WBO       # sym  WBO
 ---------------------------------------------------------------------------
     1   6 c    3.980 --     6 c    1.527     3 c    1.316     2 h    0.975
     2   1 h    0.999 --     1 c    0.975
     3   6 c    3.978 --     5 c    1.466     1 c    1.316     4 h    0.973
     4   1 h    1.000 --     3 c    0.973
     5   6 c    3.934 --     3 c    1.466     8 c    1.214    21 c    1.027
     6   6 c    3.980 --     1 c    1.527     8 c    1.280     7 h    0.974
     7   1 h    0.999 --     6 c    0.974
     8   6 c    3.963 --     6 c    1.280     5 c    1.214     9 h    0.918
                            20 fe   0.373
     9   1 h    0.999 --     8 c    0.918
    10   6 c    3.985 --    12 c    1.323    16 c    1.309    11 h    0.956
                            20 fe   0.293
    11   1 h    0.996 --    10 c    0.956
    12   6 c    3.980 --    10 c    1.323    14 c    1.277    13 h    0.963
                            20 fe   0.334
    13   1 h    0.999 --    12 c    0.963
    14   6 c    3.984 --    18 c    1.356    12 c    1.277    15 h    0.966
                            20 fe   0.296
    15   1 h    0.998 --    14 c    0.966
    16   6 c    3.982 --    10 c    1.309    18 c    1.293    17 h    0.963
                            20 fe   0.329
    17   1 h    0.997 --    16 c    0.963
    18   6 c    3.985 --    14 c    1.356    16 c    1.293    19 h    0.963
                            20 fe   0.289
    19   1 h    0.997 --    18 c    0.963
    20  26 fe   2.606 --     8 c    0.373    12 c    0.334    16 c    0.329
                            14 c    0.296    10 c    0.293    18 c    0.289
                            38 f    0.208    43 f    0.205
    21   6 c    3.912 --     5 c    1.027    22 h    0.970    23 h    0.964
                            24 n    0.863
    22   1 h    0.996 --    21 c    0.970
    23   1 h    0.993 --    21 c    0.964
    24   7 n    3.806 --    33 c    0.972    29 c    0.965    25 c    0.957
                            21 c    0.863
    25   6 c    3.916 --    28 h    0.977    27 h    0.971    24 n    0.957
                            26 h    0.949
    26   1 h    0.983 --    25 c    0.949
    27   1 h    0.989 --    25 c    0.971
    28   1 h    0.994 --    25 c    0.977
    29   6 c    3.935 --    31 h    0.979    30 h    0.978    24 n    0.965
                            32 h    0.964
    30   1 h    0.993 --    29 c    0.978
    31   1 h    0.994 --    29 c    0.979
    32   1 h    0.986 --    29 c    0.964
    33   6 c    3.947 --    34 h    0.978    35 h    0.977    36 h    0.976
                            24 n    0.972
    34   1 h    0.993 --    33 c    0.978
    35   1 h    0.992 --    33 c    0.977
    36   1 h    0.991 --    33 c    0.976
    37  15 p    5.228 --    40 f    0.958    41 f    0.947    39 f    0.921
                            42 f    0.897    38 f    0.765    43 f    0.729
    38   9 f    1.115 --    37 p    0.765    20 fe   0.208
    39   9 f    1.082 --    37 p    0.921
    40   9 f    1.082 --    37 p    0.958
    41   9 f    1.072 --    37 p    0.947
    42   9 f    1.039 --    37 p    0.897
    43   9 f    1.078 --    37 p    0.729    20 fe   0.205
    44   6 c    3.992 --    45 c    1.088    49 h    0.950    48 h    0.941
                            47 h    0.940
    45   6 c    3.942 --    46 n    2.807    44 c    1.088
    46   7 n    2.996 --    45 c    2.807
    47   1 h    0.990 --    44 c    0.940
    48   1 h    0.990 --    44 c    0.941
    49   1 h    0.994 --    44 c    0.950
 ---------------------------------------------------------------------------

Topologies differ in total number of bonds
Writing topology from bond orders to xtbtopo.mol

molecular dipole:
                 x           y           z       tot (Debye)
 q only:        0.403      -1.449       4.214
   full:        0.100      -1.220       3.772      10.079
molecular quadrupole (traceless):
                xx          xy          yy          xz          yz          zz
 q only:       -8.907       0.985     -34.947      -3.003      -4.261      43.855
  q+dip:      -11.565       2.198     -35.365     -11.066      -5.116      46.929
   full:       -9.312       3.400     -35.307      -9.272      -3.977      44.619

           -------------------------------------------------
          |                Geometry Summary                 |
           -------------------------------------------------

      molecular mass/u    :      444.1771435
   center of mass at/Å    :        0.3153994       0.1064424       0.0196662
  moments of inertia/u·Å² :        0.2357650E+04   0.2806829E+04   0.3446809E+04
rotational constants/cm⁻¹ :        0.7150184E-02   0.6005934E-02   0.4890794E-02

 * 46 selected distances

     #   Z          #   Z                                           value/Å
     1   6 c        2   1 h                                       1.0753858
     1   6 c        3   6 c                                       1.4072181
     3   6 c        4   1 h                                       1.0774898
     3   6 c        5   6 c                                       1.3832303
     1   6 c        6   6 c                                       1.3740790
     6   6 c        7   1 h                                       1.0744792 (min)
     5   6 c        8   6 c                                       1.4338706
     6   6 c        8   6 c                                       1.4204851
     8   6 c        9   1 h                                       1.0801841
    10   6 c       11   1 h                                       1.0753422
    10   6 c       12   6 c                                       1.4066577
    12   6 c       13   1 h                                       1.0762491
    12   6 c       14   6 c                                       1.4169050
    14   6 c       15   1 h                                       1.0747102
    10   6 c       16   6 c                                       1.4095431
    16   6 c       17   1 h                                       1.0746959
    14   6 c       18   6 c                                       1.4016470
    16   6 c       18   6 c                                       1.4139129
    18   6 c       19   1 h                                       1.0753313
     5   6 c       21   6 c                                       1.4806191
    21   6 c       22   1 h                                       1.0919201
    21   6 c       23   1 h                                       1.0876737
    21   6 c       24   7 n                                       1.5262149
    24   7 n       25   6 c                                       1.4702853
    25   6 c       26   1 h                                       1.0889858
    25   6 c       27   1 h                                       1.0872277
    25   6 c       28   1 h                                       1.0881688
    24   7 n       29   6 c                                       1.4682975
    29   6 c       30   1 h                                       1.0882082
    29   6 c       31   1 h                                       1.0887254
    29   6 c       32   1 h                                       1.0905192
    24   7 n       33   6 c                                       1.4679078
    33   6 c       34   1 h                                       1.0897728
    33   6 c       35   1 h                                       1.0894905
    33   6 c       36   1 h                                       1.0889475
    37  15 p       38   9 f                                       1.6830762
    37  15 p       39   9 f                                       1.5956464
    37  15 p       40   9 f                                       1.5812473
    37  15 p       41   9 f                                       1.5863690
    37  15 p       42   9 f                                       1.6146205
    37  15 p       43   9 f                                       1.7099879 (max)
    44   6 c       45   6 c                                       1.4285405
    45   6 c       46   7 n                                       1.1448707
    44   6 c       47   1 h                                       1.0893312
    44   6 c       48   1 h                                       1.0887730
    44   6 c       49   1 h                                       1.0882505

 * 4 distinct bonds (by element types)

   Z      Z             #   av. dist./Å        max./Å        min./Å
   1 H    6 C          23     1.0839070     1.0919201     1.0744792
   6 C    6 C          12     1.4147257     1.4806191     1.3740790
   6 C    7 N           5     1.4155152     1.5262149     1.1448707
   9 F   15 P           6     1.6284912     1.7099879     1.5812473


optimized geometry written to: xtbopt.coord


           -------------------------------------------------
          | TOTAL ENERGY              -86.112957852693 Eh   |
          | GRADIENT NORM               0.002280001447 Eh/α |
          | HOMO-LUMO GAP               0.800494922809 eV   |
           -------------------------------------------------

------------------------------------------------------------------------
 * finished run on 2025/02/18 at 10:12:28.070     
------------------------------------------------------------------------
 total:
 * wall-time:     0 d,  0 h,  0 min, 19.244 sec
 *  cpu-time:     0 d,  0 h,  0 min, 19.202 sec
 * ratio c/w:     0.998 speedup
 SCF:
 * wall-time:     0 d,  0 h,  0 min,  0.133 sec
 *  cpu-time:     0 d,  0 h,  0 min,  0.128 sec
 * ratio c/w:     0.961 speedup
 ANC optimizer:
 * wall-time:     0 d,  0 h,  0 min, 19.078 sec
 *  cpu-time:     0 d,  0 h,  0 min, 19.053 sec
 * ratio c/w:     0.999 speedup

