49
 energy: -86.065208934895 gnorm: 0.056745117472 xtb: 6.6.0 (conda-forge)
c            0.60130407441355       -3.05182221470233       -0.59991758477155
h            0.72825039498007       -4.01164653940616       -1.06305394477440
c           -0.02264602369118       -2.80539068298472        0.64076049852208
h           -0.44262752798584       -3.54466328127543        1.29823364000313
c            0.05972842792744       -1.40925667650115        0.90163101733709
c            1.08817821323237       -1.82460142133059       -1.09708702127638
h            1.66512316120465       -1.69817779024649       -1.99441058045170
c            0.77060595615541       -0.81455168806494       -0.17106541463035
h            1.01645966413086        0.22638639041355       -0.26759613502436
c           -2.46142738620299       -3.16606500525345       -1.50493373592124
h           -2.26834106998863       -4.21191382794672       -1.65302303065076
c           -2.93351760728632       -2.56279915003648       -0.31639115608411
h           -3.17706441973907       -3.07240906200742        0.59739536307344
c           -3.11699006439311       -1.18715896760362       -0.57214291524237
h           -3.47798401515675       -0.45218410689889        0.12200376298407
c           -2.33696423375372       -2.15601274264668       -2.48222229823126
h           -2.04742574013476       -2.29997510434851       -3.50813630849843
c           -2.76399548401073       -0.93995086142695       -1.90734546359777
h           -2.81262161621465        0.01239529728241       -2.40209071162084
fe          -1.08132990834237       -1.82941270818456       -0.79173030158723
c           -0.55222172498970       -0.72368425741200        2.07533322059709
h           -1.37752152066366       -1.32828298825850        2.45521004094649
h           -0.94219369591909        0.24246403840346        1.75967039464192
n            0.39356392892720       -0.49233462411114        3.21353362170125
c            1.52834897463520        0.33576466858680        2.77612389652215
h            2.10778772118210       -0.19884620110572        2.02681612533419
h            1.15876650359523        1.26476825083955        2.34571232295597
h            2.16542080350395        0.56395398941953        3.62771616353133
c            0.88422733366065       -1.78723208805792        3.71501017933383
h            1.56006632862746       -1.62410212343095        4.55145311174790
h            0.03622650247149       -2.38475528978209        4.04456924791689
h            1.41250902393548       -2.31101787120722        2.92138667315077
c           -0.33953464461041        0.20013689451373        4.28558180264330
h           -1.18810157887030       -0.40798843200723        4.59365280812931
h            0.31559979078703        0.35708851743082        5.13898735965062
h           -0.69759016892291        1.16285005716655        3.92551385963083
p           -1.32304378034207        2.62441635543623       -0.38161626654066
f           -1.90179757154908        2.76169946063916       -1.88992913975105
f           -2.83154064959002        2.58171926543584        0.20365881541819
f           -1.32466279645723        4.24971576849583       -0.25014040752701
f           -0.73362385354145        2.51553837565155        1.12605125026909
f            0.19339641874052        2.68923766282573       -0.95921513081854
f           -1.30672373137508        1.02288221561114       -0.50779752565983
c            8.10303021383248        0.60916106505233       -0.15157489261918
c            9.06203141171982        0.30898257946785       -1.17244093088516
n            9.82793457209641        0.06860676132264       -1.98900199272312
h            7.12742793717650        0.22608180463548       -0.44693153957092
h            8.40948614578099        0.14190333374465        0.78313430280763
h            8.04702130757086        1.68811970044587       -0.01387783970985
49
 energy: -86.068633524694 gnorm: 0.041849640323 xtb: 6.6.0 (conda-forge)
c            0.60707644154438       -3.04450745343315       -0.59882076893161
h            0.73478369513166       -4.00555801364087       -1.06198056984565
c           -0.01185411737126       -2.80213628683837        0.64560237798163
h           -0.43192892522569       -3.54547462855385        1.30125662194467
c            0.06914881549386       -1.40275417784632        0.90307742668849
c            1.08794437608749       -1.81427913255517       -1.09947291396925
h            1.64539220313507       -1.68346715860929       -2.00843964408762
c            0.77934988639017       -0.80598252440091       -0.17207294718955
h            1.01343464469554        0.23642846948904       -0.27829262073440
c           -2.46894552657903       -3.16100371636734       -1.50864911509112
h           -2.27703295863566       -4.20914669018296       -1.65496759316721
c           -2.95053461764649       -2.55916760629039       -0.32319370991397
h           -3.20130936557777       -3.07287329785554        0.58832726695031
c           -3.13024912139896       -1.18157863342394       -0.58087260697136
h           -3.49728724410536       -0.44620032937004        0.11030551529312
c           -2.33491381763350       -2.14734084482905       -2.48396749138986
h           -2.03286706426928       -2.29133104091596       -3.50607312618721
c           -2.76297717359361       -0.93194762250801       -1.91300724089991
h           -2.79558571674127        0.02305699833765       -2.40199963664163
fe          -1.09046660930353       -1.82672226814326       -0.77546987227886
c           -0.55544055132102       -0.71208971925448        2.06376801008789
h           -1.38511716886741       -1.31403268751100        2.43759715544221
h           -0.93902429160118        0.25479426163488        1.74142613192389
n            0.38659803232842       -0.48182627929293        3.21102409921339
c            1.51879422014152        0.34635730633886        2.76846594554202
h            2.09093917251652       -0.18911751183710        2.01373807825922
h            1.14667389325078        1.27246243584933        2.33292863252705
h            2.16321793540463        0.57624034159719        3.61574860409910
c            0.88152409349857       -1.77572717664565        3.71041986544738
h            1.56400335958433       -1.62193135687497        4.54449541238445
h            0.04393420396708       -2.38497529151524        4.04437412532803
h            1.40214998447605       -2.30108729281478        2.91201851448949
c           -0.34170498572794        0.21439039808702        4.28265373193047
h           -1.19414187938738       -0.38477161835682        4.59769703647534
h            0.31219742577053        0.37703247706071        5.13788483031796
h           -0.70005011671403        1.17471539375647        3.91688213535520
p           -1.31119345299736        2.59124691490576       -0.36603790299762
f           -1.88810411701549        2.72105323102589       -1.87227904889193
f           -2.81262660179008        2.52993334628727        0.23586111160977
f           -1.31136011023499        4.21075799019159       -0.21447839395571
f           -0.71585885804265        2.45937584014971        1.14700171370777
f            0.21202599184382        2.64070650764460       -0.92670806813034
f           -1.29441542844411        0.97953241678229       -0.48319796739842
c            8.10280755088980        0.61085442674608       -0.15316173018137
c            9.06417560427091        0.31168142412612       -1.17655012839511
n            9.83118073107489        0.06188756893072       -1.98494779602157
h            7.12636137485379        0.22961268725296       -0.44910306924588
h            8.40847766956208        0.14276743368335        0.78208664117075
h            8.04380251087033        1.68977923657236       -0.01542981097218
49
 energy: -86.072035236612 gnorm: 0.019836581221 xtb: 6.6.0 (conda-forge)
c            0.61589242431857       -3.03461694157716       -0.59988776950278
h            0.74534754680487       -3.99703518568017       -1.06196287192555
c            0.00247927340819       -2.79619723402338        0.64745593559192
h           -0.41473998034035       -3.54482318662493        1.30087846398739
c            0.08281334745136       -1.39430506323050        0.90300752395797
c            1.09376448322931       -1.80176182401606       -1.10080098806102
h            1.62276728021795       -1.66522790291523       -2.02628584172104
c            0.79908367964803       -0.79695282628516       -0.17093384052144
h            1.02049488715443        0.24633131266249       -0.28790242858451
c           -2.48301630543404       -3.15124503274093       -1.51652544985587
h           -2.29377243190345       -4.20182275730110       -1.65960222838912
c           -2.97661356579898       -2.55042656125199       -0.33552928870761
h           -3.24116981299562       -3.07031556956173        0.57040773160717
c           -3.15304223869749       -1.17192312651479       -0.59478015725934
h           -3.53102987267921       -0.43653490223942        0.09133233204930
c           -2.33543236968611       -2.13423214701585       -2.48918797303245
h           -2.01079454155514       -2.27892679150023       -3.50452364460402
c           -2.76859987016753       -0.92127364131433       -1.92334297333208
h           -2.77680110868754        0.03854467863991       -2.40255348063914
fe          -1.10139822919082       -1.81743595434283       -0.76452014316547
c           -0.55834459972056       -0.69767724642547        2.04683675935200
h           -1.39673378744261       -1.29147177576079        2.41255714780382
h           -0.92877432574180        0.27075835919808        1.71694397115765
n            0.37731343341988       -0.46286231051044        3.20822525403060
c            1.50399592903996        0.36640167154531        2.75530403235665
h            2.06572475516104       -0.16989797755539        1.99243213352612
h            1.12457945346844        1.28742300124744        2.31406871984822
h            2.15893105507670        0.60080838925905        3.59409283299039
c            0.87711327390349       -1.75388452668204        3.70287026038049
h            1.57051641981555       -1.60737884615717        4.53049677432554
h            0.05015010197708       -2.37406132227858        4.04562138850273
h            1.38568826780202       -2.28058308754681        2.89558922499565
c           -0.34849452493398        0.24009621109419        4.27357236147333
h           -1.20468014792873       -0.34919660851296        4.59878345466760
h            0.30462075528661        0.41259659835928        5.12934607108405
h           -0.70672041360074        1.19666530253670        3.89651438401876
p           -1.29206994256658        2.53728644052467       -0.33406746393837
f           -1.86612049825837        2.65101080062944       -1.83283007435298
f           -2.78104040563641        2.44654442148016        0.29459424926213
f           -1.28280749397731        4.14263112488387       -0.15257709637530
f           -0.68403495226935        2.36122943407558        1.19178596021504
f            0.23998698266528        2.55366416358397       -0.87066958130300
f           -1.28004764968267        0.90417329636454       -0.43938763621130
c            8.10143829333338        0.61264976284798       -0.15504351516343
c            9.07192408724734        0.29041684448007       -1.16786235877632
n            9.83379349080803        0.07234896303926       -1.99061357202893
h            7.12401057173765        0.23608114267260       -0.45467905166841
h            8.39841645174479        0.14899691057227        0.78542665785740
h            8.04643682073342        1.69304826645056       -0.02660698524248
49
 energy: -86.072483388782 gnorm: 0.024757129265 xtb: 6.6.0 (conda-forge)
c            0.61998677811497       -3.02985598489506       -0.60457156737225
h            0.75057706358188       -3.99221175430763       -1.06615673348899
c            0.00936377564675       -2.79272995504420        0.64352523868262
h           -0.40418030743987       -3.54346609810361        1.29651991042198
c            0.09174713882554       -1.39159880278626        0.90119227785697
c            1.10082636175391       -1.79691918491424       -1.10221656564401
h            1.61759914965814       -1.65780182964794       -2.03385252968450
c            0.81591117882053       -0.79537035922734       -0.16868670020996
h            1.03746184799910        0.24703688978812       -0.28659955664777
c           -2.49515883433835       -3.14325382755203       -1.52587140462927
h           -2.30773346640857       -4.19436793923988       -1.66657826472704
c           -2.99778818653160       -2.54236589747825       -0.34879149991803
h           -3.27434554077397       -3.06504122223029        0.55209745605733
c           -3.17402483645644       -1.16493321580478       -0.60900516574845
h           -3.56132378270049       -0.43005033369840        0.07265763063128
c           -2.33751511635185       -2.12556082342832       -2.49644286866207
h           -1.99755910904273       -2.27088525573026       -3.50687970595607
c           -2.77669939944829       -0.91412057468436       -1.93394578910753
h           -2.77195331704807        0.04849980929569       -2.40758775679512
fe          -1.10854530808376       -1.80983498603764       -0.76721901421279
c           -0.55788985981303       -0.69250395978784        2.03702851551063
h           -1.40010939878075       -1.28111926534585        2.40028881592903
h           -0.92290929621275        0.27465624518525        1.70296317872119
n            0.37327925907523       -0.44640881049518        3.20476499737328
c            1.49483782852153        0.38525009122500        2.74398943199943
h            2.05168338257494       -0.15106777720203        1.97749451394316
h            1.10848605747116        1.30256445997111        2.30130778862449
h            2.15450688646507        0.62470746274993        3.57693847421801
c            0.87611449938508       -1.73324462124014        3.70008066543210
h            1.57742747244057       -1.58504412626836        4.52067116285041
h            0.05216691847426       -2.35352250432978        4.05109238772114
h            1.37617012557877       -2.26143985966867        2.88767673244500
c           -0.35591344273059        0.26338151072575        4.26096682960971
h           -1.21220621567424       -0.32273655291505        4.59203416160193
h            0.29599290326826        0.44596597497988        5.11592888703055
h           -0.71478447796619        1.21593648149468        3.87315864387732
p           -1.27561157183873        2.49292572922662       -0.29791932644884
f           -1.84994519065298        2.59595510298416       -1.78768524102939
f           -2.75614876183923        2.38631764676898        0.34585356991098
f           -1.25446693823932        4.08512125626753       -0.10026645759513
f           -0.65779239942421        2.28683736333031        1.23893181272971
f            0.25830313350273        2.48489612202103       -0.82584763332681
f           -1.27142614850682        0.84366145060769       -0.40310272610213
c            8.09865748437783        0.62040596838880       -0.16101365437682
c            9.05917056452592        0.35086739253219       -1.19901173986424
n            9.85129602872848        0.01187409192042       -1.95753078817672
h            7.12372671944061        0.23673233528271       -0.45951102152850
h            8.41104296169065        0.14416970910866        0.76805637997768
h            8.03069938293957        1.69732917479048       -0.01345854122383
49
 energy: -86.073590001150 gnorm: 0.020014281540 xtb: 6.6.0 (conda-forge)
c            0.61921308959723       -3.03161349310138       -0.60869613066065
h            0.74934374966018       -3.99312154362900       -1.07109081059718
c            0.00900233565503       -2.79429365038470        0.63926184875260
h           -0.40348144785071       -3.54439906235092        1.29276124042228
c            0.09504396106503       -1.39507438333751        0.90019959749106
c            1.10463763047228       -1.79975878765680       -1.10325922624219
h            1.62422246873500       -1.66069246709348       -2.03246385631223
c            0.82326056810318       -0.79985317703603       -0.16676757797933
h            1.05164546454391        0.24139636043386       -0.28032878005774
c           -2.50077105937246       -3.14064724156876       -1.53236235167804
h           -2.31388023140669       -4.19131550475674       -1.67238976620479
c           -3.00808241376950       -2.53932544199353       -0.35752805950622
h           -3.29039001511284       -3.06143154393915        0.54126815586913
c           -3.18519336972087       -1.16312533240423       -0.61850418133960
h           -3.57663675949881       -0.42859835231754        0.06094057305947
c           -2.33813385630564       -2.12351726799214       -2.50179155851394
h           -1.99448828156241       -2.26888732177086       -3.51074348047707
c           -2.78065077154005       -0.91194469509882       -1.94066392262674
h           -2.77524626131866        0.05081960602865       -2.41407010172883
fe          -1.11130097398580       -1.80907928650871       -0.77333170377255
c           -0.55560387066561       -0.69610800103500        2.03591565729331
h           -1.39575900263882       -1.28542010658119        2.40149139371770
h           -0.92461030125031        0.26765074641908        1.70017891572184
n            0.37405535334219       -0.43878960290527        3.20193877663575
c            1.49324649819482        0.39476306012076        2.73854362368344
h            2.05073010412245       -0.14140314317526        1.97300332572645
h            1.10398261164086        1.31063056529236        2.29646701977886
h            2.15214909290036        0.63761760253726        3.57031328126589
c            0.87847283562741       -1.72204285714117        3.70289969809678
h            1.58239418152500       -1.56823136339998        4.51958814171686
h            0.05332467282132       -2.33762201891606        4.05863931720989
h            1.37577022505030       -2.25236764175194        2.89071909630421
c           -0.36004376548213        0.27568990581172        4.25163246615486
h           -1.21477631820696       -0.31151238496959        4.58391104450312
h            0.29016634044078        0.46530314578652        5.10598791861746
h           -0.72014388819784        1.22514339022860        3.85720978333507
p           -1.26827899599773        2.47634990771824       -0.27589530182159
f           -1.84495467909059        2.57653331369497       -1.76073582158736
f           -2.74653870014666        2.36949173987458        0.36966567000846
f           -1.24040548710386        4.06299633169203       -0.07814850937722
f           -0.64760220946546        2.26597717993412        1.26506716148708
f            0.26284050176363        2.46134548959576       -0.80752562194018
f           -1.26930628572788        0.82253108135042       -0.38638192823763
c            8.09986906841238        0.61524694510074       -0.16068627100191
c            9.07102813229521        0.30212692819751       -1.17419931991317
n            9.83895576058571        0.06157159740573       -1.97852814730719
h            7.12380230017131        0.23845544459073       -0.46400388819637
h            8.39532666259748        0.15093564809746        0.77951005997183
h            8.04479933265407        1.69523642948620       -0.03155023906407
49
 energy: -86.074038977312 gnorm: 0.006204096464 xtb: 6.6.0 (conda-forge)
c            0.61526200691535       -3.03931131696598       -0.61257455668085
h            0.74246087958361       -3.99950157671418       -1.07794320579056
c            0.00433710595904       -2.80214337910916        0.63523881383697
h           -0.41069419787932       -3.55072878981953        1.28846961072948
c            0.09735260904594       -1.40515198326530        0.90102492361288
c            1.10742645080724       -1.80875254565918       -1.10310185477387
h            1.63627021264235       -1.67018487468867       -2.02706103483810
c            0.82713901470743       -0.80995356376833       -0.16393727297414
h            1.06365044639773        0.23058687000129       -0.27193217131785
c           -2.50276041371831       -3.14154403544609       -1.53862300376875
h           -2.31586120471137       -4.19179095669386       -1.67905579356381
c           -3.01380663173528       -2.54005550321852       -0.36537248744586
h           -3.29909205409129       -3.06039199970809        0.53295012275180
c           -3.19195653377736       -1.16461914850882       -0.62728636921797
h           -3.58503402600851       -0.43026320996820        0.05117585571404
c           -2.33658771070332       -2.12485026775873       -2.50707952730288
h           -1.99467611587852       -2.26959215656814       -3.51642951637364
c           -2.78152163083749       -0.91254163856247       -1.94679484353257
h           -2.78059206489646        0.04919574334837       -2.42259007165523
fe          -1.11224861798873       -1.81319159125866       -0.77909966135171
c           -0.55139973118505       -0.70755533375260        2.04004084746649
h           -1.38477519135872       -1.30298989691346        2.41123477640117
h           -0.93199836249359        0.25075603844007        1.70266070307477
n            0.37805507206693       -0.43687381132948        3.19996246038571
c            1.49636954883799        0.39792907413594        2.73613105044721
h            2.05762069727759       -0.13858675759121        1.97417955707249
h            1.10647801253990        1.31276287685037        2.29345089623865
h            2.15184668140026        0.64437004822511        3.56938154733681
c            0.88499085824401       -1.71562720173802        3.71152121092399
h            1.58881137721805       -1.55324425920410        4.52612839627271
h            0.05869146781460       -2.32644988701006        4.07185664636600
h            1.38269827199947       -2.25041424675666        2.90326777689256
c           -0.36189136402059        0.28232916745739        4.24363407190464
h           -1.21477461945957       -0.30715159978565        4.57577383872206
h            0.28558673879002        0.47954751708208        5.09794582146974
h           -0.72403164657657        1.22805276495024        3.84238334517806
p           -1.26830913071385        2.48123320773846       -0.26210687187363
f           -1.84822562339158        2.58198430992851       -1.74512087707217
f           -2.74677397294456        2.38080976441800        0.38054052159538
f           -1.23729564857489        4.06706720281338       -0.07127601754189
f           -0.64878030044274        2.28127196721670        1.27891941160733
f            0.25896798871635        2.46753777482312       -0.80068684014678
f           -1.27231903045577        0.82921283828194       -0.37733909168196
c            8.09842451905889        0.61603375751041       -0.16253997379317
c            9.07287478784856        0.29573392627281       -1.16989451106643
n            9.84334756095022        0.06452972288100       -1.98088891596533
h            7.12282680529458        0.23977274766116       -0.46765120997715
h            8.38937826192985        0.15377023267000        0.78008162745249
h            8.04554244435636        1.69661072563835       -0.03610094306748
49
 energy: -86.074594225473 gnorm: 0.007825047336 xtb: 6.6.0 (conda-forge)
c            0.60744259639050       -3.05172947245396       -0.62162081286190
h            0.72810288008504       -4.00957013985942       -1.09331981747151
c           -0.00400091317450       -2.81559336730912        0.62624090245087
h           -0.42401775742931       -3.56256130786846        1.27789439954070
c            0.10557520601164       -1.42295418672323        0.90308286710500
c            1.11591158552538       -1.82383798585928       -1.10180579137099
h            1.65805396968766       -1.68548799959095       -2.01859451657734
c            0.84100680934166       -0.82794882329374       -0.15681682900216
h            1.09083794781934        0.21125438764099       -0.25595794034201
c           -2.50918901421911       -3.13962188963509       -1.55442417824789
h           -2.32238020466534       -4.18957532119993       -1.69497627554166
c           -3.03185170589687       -2.53834033326916       -0.38585713579305
h           -3.32686090326368       -3.05706289557686        0.50982276032295
c           -3.21320344039987       -1.16444604063203       -0.65005442702082
h           -3.61288722743758       -0.43087485370503        0.02536104711137
c           -2.33389537060370       -2.12318749160197       -2.52047502377729
h           -1.98945244327626       -2.26672200770442       -3.52918316464824
c           -2.78719928846409       -0.91050378079422       -1.96335799672999
h           -2.78986457561091        0.05034892131226       -2.44185208947370
fe          -1.11695050863232       -1.81509320309991       -0.79062864698819
c           -0.54290577295274       -0.72678321058515        2.04528493679814
h           -1.36283766291893       -1.33483445091303        2.42722454095577
h           -0.94563077004357        0.22077388227870        1.70238466582658
n            0.38435603079298       -0.42753983323688        3.19576394626380
c            1.49911854451980        0.40972507049425        2.72731282465591
h            2.06644953836091       -0.12878689404721        1.97188910211211
h            1.10528242022376        1.32038715073119        2.28039698267738
h            2.14957466456664        0.66582368736397        3.56158025784967
c            0.89868381381497       -1.69527299313945        3.72972683236861
h            1.60521262944449       -1.51415113404274        4.53778752043651
h            0.07353393911165       -2.29909793351409        4.10412183186759
h            1.39489458277411       -2.24127138761720        2.92849186202697
c           -0.36780686921934        0.30353719141005        4.22430049037245
h           -1.21743880184631       -0.28872252680119        4.55907394441522
h            0.27366104815312        0.51979104154079        5.07824660451031
h           -0.73429354976779        1.23997930475146        3.80474545797113
p           -1.26314527337360        2.47278741718673       -0.22478866587544
f           -1.84815561610808        2.57776679791730       -1.70237130094718
f           -2.73947575118444        2.37888999440570        0.41754733546776
f           -1.22165690372262        4.05369460110671       -0.03590817259439
f           -0.64402804794826        2.27730774201044        1.31898248217433
f            0.25893326785286        2.45393724245815       -0.77040633146995
f           -1.27561231824310        0.81976276539191       -0.35159124038473
c            8.09605120991713        0.61865143689967       -0.16850323495852
c            9.07358381442598        0.30030264809809       -1.17172940056729
n            9.85192153779518        0.05596069062072       -1.97370502377476
h            7.12174766957975        0.24227255706461       -0.47734281320945
h            8.38226977435962        0.15690477322484        0.77584722452423
h            8.04353920640737        1.69934890674666       -0.04237277949731
49
 energy: -86.074962487648 gnorm: 0.010227149981 xtb: 6.6.0 (conda-forge)
c            0.59904994385285       -3.06316576309928       -0.62986653177555
h            0.71177069995634       -4.01891620323207       -1.10833351199848
c           -0.01302968035179       -2.82876042619328        0.61813166038019
h           -0.43973503131828       -3.57516573290548        1.26644120101743
c            0.11516692308886       -1.44038692552793        0.90695007330770
c            1.12520543133658       -1.83818973204548       -1.09865281002108
h            1.67708239349380       -1.70004753016580       -2.01038092621904
c            0.85754307103844       -0.84562218495425       -0.14768778105227
h            1.11714651483047        0.19212621945152       -0.24045905853879
c           -2.51577583337755       -3.13591036177022       -1.57253519686057
h           -2.32894075025072       -4.18607792587344       -1.71295856290035
c           -3.05206289214895       -2.53539080083770       -0.40947464013110
h           -3.35787926679134       -3.05400703031108        0.48281625203903
c           -3.23627937609282       -1.16241439289156       -0.67613007273833
h           -3.64409608929657       -0.43003761275798       -0.00403646708239
c           -2.33080153155998       -2.11891950942623       -2.53599835234857
h           -1.98067789782807       -2.26116172224500       -3.54335671212788
c           -2.79371001115953       -0.90661439875307       -1.98308150177900
h           -2.79646258000939        0.05379870429068       -2.46333802063185
fe          -1.12295521880122       -1.81426952404717       -0.80044609410569
c           -0.53437654056073       -0.74599250122567        2.05121314510374
h           -1.33968837301774       -1.36789638194746        2.44401333899917
h           -0.95980642208521        0.19038918173755        1.70268477088301
n            0.39041199892264       -0.41782935178936        3.19317937840074
c            1.50170622910295        0.41979915384074        2.71703631152572
h            2.07467072523796       -0.12380322263353        1.96962969915725
h            1.10417115046302        1.32402138068183        2.26046212291215
h            2.14794184904049        0.68863126344393        3.55101745660859
c            0.91392946336208       -1.67230897410126        3.75176972338656
h            1.62417811998007       -1.47005122741778        4.55198051308587
h            0.09372983591313       -2.27192233278624        4.14407091195437
h            1.40851379684800       -2.23233524914942        2.95890353269084
c           -0.37237694675055        0.32714641942460        4.20528455812211