173
 energy: -266.433128774993 gnorm: 0.000674412270 xtb: 6.6.0 (conda-forge)
C           -2.65477000004292        3.04074999989117        0.68277000019226
H           -3.10208000628199        4.01438364565719        0.77361784169436
C           -2.25823146091312        2.41664974231750       -0.52222220488681
H           -2.38186810830615        2.81213182837834       -1.51434626002491
C           -1.60397796648842        1.19926529569334       -0.18982945942319
C           -2.25654195126970        2.21136302402991        1.75773205686685
H           -2.37340374774574        2.42449489105346        2.80353845563058
C           -1.61390225519033        1.07753129641207        1.22662051685463
H           -1.20073779938373        0.26373000316933        1.78991928898828
C           -5.60710004987233        0.95016570256659        0.56059716574746
H           -6.37154845241255        1.69819479954411        0.67982878399542
C           -5.11241290538433        0.45689376595529       -0.66974727996757
H           -5.40125681781411        0.78200416075122       -1.65198360277092
C           -4.21445176768689       -0.59343017410907       -0.38631079298862
H           -3.69625601735812       -1.20133972913326       -1.10299601698915
C           -5.00840604383231        0.19896519712704        1.60255030106175
H           -5.19970704566992        0.29758561259310        2.65494791872695
C           -4.15173932401893       -0.75311422350893        1.01594511168286
H           -3.55903745491181       -1.48296892449420        1.53243791816699
Fe          -3.51397984037438        1.11622792123731        0.49736559687682
C           -1.04501062362304        0.20896109743303       -1.15438832445724
H           -1.61045269547773        0.24953955904615       -2.08760632392797
H           -1.13789024501706       -0.79266610281469       -0.73316426027471
N            0.40045175485922        0.43552000205514       -1.48783714224748
C            1.20897366713227        0.33048648657574       -0.22898165519987
H            0.87296752577073        1.12189691674662        0.44335539099317
H            0.97862599467896       -0.63583674722721        0.22424516769180
C            0.56264279942465        1.76831499709546       -2.09687635307184
H            1.60316834608934        1.92058522784936       -2.37394412122734
H           -0.05982649297760        1.83783246858156       -2.98657011804008
H            0.26142122792985        2.53621084923860       -1.38763308324982
C            0.81896737595210       -0.59445408996735       -2.45504950169483
H            0.20449171802873       -0.52974556361266       -3.35030566069233
H            1.86266122489498       -0.44761375529627       -2.72426543665069
H            0.70351297164866       -1.58389309044337       -2.01701526238564
P           -0.99626831737328       -3.63847629052183        0.76742222631266
F           -2.05335460443691       -3.15015921288602       -0.35750320955867
F            0.22165892684715       -3.15734199358450       -0.19378427370329
F           -0.95863661682803       -5.11191548384011        0.08086101979817
F            0.07266172898939       -4.13774442205018        1.87733797746377
F           -2.21452737871108       -4.11599681327612        1.72304388094051
F           -1.02814401348976       -2.17179698878617        1.44276774564937
C            2.69602639247846        0.44188361272538       -0.44086264667128
C            3.46210195835662       -0.70296485276675       -0.63570902744324
C            3.32766137469646        1.68116709158781       -0.40933309768656
C            4.82998814811485       -0.60709237559651       -0.82282328667586
H            2.98890735836851       -1.67412902097629       -0.62679421155876
C            4.69475514362849        1.77539462682053       -0.60397583466531
H            2.75652218697258        2.57632600829584       -0.21628250661209
C            5.44758731574177        0.63285298812666       -0.81749963244901
H            5.41270796613112       -1.50375940896515       -0.96745957580680
H            5.17347777814755        2.74205272068551       -0.58358641219760
H            6.51380834162515        0.70681831402216       -0.96758380382092
C            1.19009833472044       -0.06019885748028        6.98214983527077
C            1.70964441205652        0.43796330738434        5.74549464864158
N            2.12392491620806        0.83757832557333        4.75517589532745
H            1.98732214725621       -0.54612252682364        7.54273686078829
H            0.78523257439521        0.76437992909303        7.56674950251277
H            0.39891536456461       -0.78122847612953        6.77399444102303
C           -2.94614141253597       -3.83772029758240        5.21773154994420
C           -1.99316020716848       -2.93333080734072        5.78105286090790
N           -1.23423346307942       -2.20648309508367        6.23589696095720
H           -2.86725349838343       -4.80369464029089        5.71430335431783
H           -3.95119468466893       -3.43964833281529        5.34886410000372
H           -2.73937659429115       -3.96080097565055        4.15505402898583
C            0.57203968849327        5.82812956235710        5.34690895734784
C            1.32122641794870        5.70366046226750        4.13428483211581
N            1.91808147297214        5.60918499117965        3.16167814536232
H            1.23158632974254        6.16549870366249        6.14549081533043
H           -0.23133665670062        6.54984379440944        5.20714909973265
H            0.14855294109348        4.86014320080893        5.61017927284632
C            2.78350309406658       -4.68012818901099        4.03810835293228
C            3.88941387860538       -4.60457165095751        3.13589726027386
N            4.77662199016925       -4.54721693534196        2.41410605257665
H            2.90034826057564       -3.93361767234699        4.82171588697404
H            1.86092715050586       -4.48976872387982        3.49102871367043
H            2.74239014099404       -5.67448149562062        4.48053167231573
C           -5.45413635931907        3.45249229986884        2.98913858130439
C           -4.81948313267805        4.14101679471730        4.07291752950132
N           -4.31336272873573        4.69140902073442        4.93984829264304
H           -6.26614006861714        2.84217867479754        3.38061836205609
H           -5.85502206007086        4.18261753818006        2.28897395394539
H           -4.73139654016768        2.81335143367622        2.47789982700212
C            5.21803848922635        4.82042105926445        3.55810730622999
C            5.45143255041010        5.35850374475562        4.86294697883707
N            5.63103406500662        5.79074446095225        5.90866274865625
H            4.19080976098178        5.03607803877965        3.26074833127749
H            5.90859049985093        5.27349277706562        2.84836223888635
H            5.36961649630540        3.74231828194987        3.57833625375438
C           -2.40064873838678       -7.99207346364490        1.77823584104068
C           -1.52685654906196       -8.21376671516454        2.89086212237566
N           -0.82856754046891       -8.38763530767101        3.78145866833682
H           -3.43566253615504       -8.09027580754236        2.10131378099807
H           -2.23728195104190       -6.98653718121912        1.39113708121844
H           -2.19015349581466       -8.72117646689728        0.99755765861804
C           -3.59132245953336        9.68380693501088        3.25289551449871
C           -4.10446569144154        8.91372239951966        2.15936450576996
N           -4.51283075121875        8.29795730202652        1.28499164974049
H           -3.74679562096547        9.13836357687864        4.18297601281196
H           -2.52605726656577        9.85746803834315        3.10537356213851
H           -4.11198990854155       10.63935666943819        3.30045491267554
C            7.24798505146482       -5.76112510057955        0.55765521524898
C            7.16878476826579       -7.18455012680850        0.67616527100759
N            7.10079708819936       -8.32479266485481        0.76591883067473
H            6.46213689888545       -5.30602074418343        1.16192311029333
H            8.22032425380086       -5.41953333897981        0.90904325543677
H            7.11369874620029       -5.47763764224824       -0.48524650761341
C           -6.89601232128039       -2.99294595266059       -0.35620487876425
C           -6.67081486474230       -4.36084674957561       -0.00111693072168
N           -6.50084025255758       -5.45688198770219        0.28476618041766
H           -7.76032956834682       -2.61544655893616        0.18800154032149
H           -6.01667015680819       -2.40124897427899       -0.10162409504125
H           -7.07849706369242       -2.92358861204202       -1.42748110951762
C            1.61359229694568        7.05333459073153       -2.14542281144607
C            2.89545948910890        6.71907697147151       -2.68589936007308
N            3.92213499158010        6.44843326718001       -3.11612767955136
H            1.51895404547893        6.63271420645172       -1.14592588774660
H            1.51514098129785        8.13666000822109       -2.09236596598200
H            0.83185345669907        6.65136071729909       -2.79099643874973
C            1.91398146777272       -7.06540057043122       -0.96346478825582
C            2.46623896847517       -6.24763106962280       -2.00146456332327
N            2.89466264822996       -5.59464504306460       -2.83836152175223
H            2.71119831334198       -7.42796474130359       -0.31690494910252
H            1.21327540284858       -6.47017037926408       -0.37840949593951
H            1.39288606944276       -7.91322508770510       -1.40551653497684
C           -5.19586175378946        3.84884109460382       -1.65346173126020
C           -4.91404264331747        3.32643704030207       -2.95595159792988
N           -4.68697271695148        2.90750758002072       -3.99710449370204
H           -4.88244617590256        3.12619807175137       -0.89714517242714
H           -4.65228046415459        4.78184401665677       -1.51646771692653
H           -6.26437058208764        4.03713625796211       -1.56619998977433
C            8.72156963358902        4.38904179541379       -3.72510456588138
C            9.21553636615986        4.32055027063948       -2.38243081948406
N            9.60897215594680        4.26452670277986       -1.30837980172447
H            7.67073240101671        4.10483593876802       -3.74001274301532
H            8.82655918590672        5.40670550566824       -4.09871366829120
H            9.28898570738214        3.70671509497218       -4.35656818755786
C           -2.71403005802559       -5.80644428352281       -3.07411019426290
C           -3.37000381694039       -4.81468304988641       -3.87118755317720
N           -3.89155971678080       -4.02380960430502       -4.51395920766403
H           -2.31901683869590       -5.34070851295708       -2.17144625670594
H           -3.42682493780300       -6.58193700859614       -2.79788221937565
H           -1.89596280658247       -6.24608890495106       -3.64272354598951
C           -2.05660560470159        6.56173230734968       -6.46856465703471
C           -1.34951506481660        6.30080446274596       -5.25345400098259
N           -0.78816061638366        6.09083465359248       -4.27785497802164
H           -2.96359580177928        7.12329186428692       -6.24806933276728
H           -1.42328220361866        7.13987273032749       -7.14033451903214
H           -2.31877971441563        5.61709975127812       -6.94346475462088
C            5.67205799353107       -2.18303000982360       -6.00279883576643
C            6.22495513064734       -0.88151866811053       -5.79166876868288
N            6.66626817073348        0.16244051917714       -5.62397968661233
H            5.59664381407863       -2.70794420248572       -5.05182342125027
H            4.67768520195421       -2.08945655140878       -6.44083765820109
H            6.31360119768513       -2.74622669622957       -6.67894256667030
C           -4.44986314458387       -0.08538418780006       -7.88572996153409
C           -3.06218710376709       -0.15146089600152       -7.54849743680794
N           -1.95045328365375       -0.20752821728739       -7.27873076597338
H           -5.03823965191173       -0.49606319389655       -7.06637659815912
H           -4.73396033958538        0.95257393742454       -8.05316733056798
H           -4.63147519817058       -0.66451049530786       -8.79031724732485
C            2.47792541115394        3.09642047810617       -7.28018125767837
C            1.93229295572681        3.84413054265280       -8.37280152050950
N            1.48979408873770        4.44347289398268       -9.24258961127881
H            2.73748508395960        3.77589345237772       -6.46967708516709
H            1.73977184237225        2.37540330313725       -6.93308805245781
H            3.37107702708172        2.56785274399848       -7.61036572765300
C            0.18260760922787       -2.68251249725409       -7.81254894223450
C            1.53495603500532       -2.34203197296394       -7.50292954791788
N            2.61827380927696       -2.06658626516480       -7.25256891421155
H           -0.46175354846255       -1.82134244172880       -7.62570088673880
H            0.11017511995948       -2.96874522110291       -8.86077883003733
H           -0.13511955061348       -3.51329407789373       -7.18390936582375
