 Entering Gaussian System, Link 0=g16
 Input=Ferrocene_NH4_poly_0_gas_secondrun.com
 Output=Ferrocene_NH4_poly_0_gas_secondrun.log
 Initial command:
 /gpfs/fs1/soft/improv/software/custom-built/gaussian/g16/l1.exe "/scratch/Gau-1142788.inp" -scrdir="/scratch/"
 Default CPUs for threads: 0-127
 Default linda workers: i588.lcrc.anl.gov
 Default is to use 128 SMP processors on each worker.
 Entering Link 1 = /gpfs/fs1/soft/improv/software/custom-built/gaussian/g16/l1.exe PID=   1142789.
  
 Copyright (c) 1988-2021, Gaussian, Inc.  All Rights Reserved.
  
 This is part of the Gaussian(R) 16 program.  It is based on
 the Gaussian(R) 09 system (copyright 2009, Gaussian, Inc.),
 the Gaussian(R) 03 system (copyright 2003, Gaussian, Inc.),
 the Gaussian(R) 98 system (copyright 1998, Gaussian, Inc.),
 the Gaussian(R) 94 system (copyright 1995, Gaussian, Inc.),
 the Gaussian 92(TM) system (copyright 1992, Gaussian, Inc.),
 the Gaussian 90(TM) system (copyright 1990, Gaussian, Inc.),
 the Gaussian 88(TM) system (copyright 1988, Gaussian, Inc.),
 the Gaussian 86(TM) system (copyright 1986, Carnegie Mellon
 University), and the Gaussian 82(TM) system (copyright 1983,
 Carnegie Mellon University). Gaussian is a federally registered
 trademark of Gaussian, Inc.
  
 This software contains proprietary and confidential information,
 including trade secrets, belonging to Gaussian, Inc.
  
 This software is provided under written license and may be
 used, copied, transmitted, or stored only in accord with that
 written license.
  
 The following legend is applicable only to US Government
 contracts under FAR:
  
                    RESTRICTED RIGHTS LEGEND
  
 Use, reproduction and disclosure by the US Government is
 subject to restrictions as set forth in subparagraphs (a)
 and (c) of the Commercial Computer Software - Restricted
 Rights clause in FAR 52.227-19.
  
 Gaussian, Inc.
 340 Quinnipiac St., Bldg. 40, Wallingford CT 06492
  
  
 ---------------------------------------------------------------
 Warning -- This program may not be used in any manner that
 competes with the business of Gaussian, Inc. or will provide
 assistance to any competitor of Gaussian, Inc.  The licensee
 of this program is prohibited from giving any competitor of
 Gaussian, Inc. access to this program.  By using this program,
 the user acknowledges that Gaussian, Inc. is engaged in the
 business of creating and licensing software in the field of
 computational chemistry and represents and warrants to the
 licensee that it is not a competitor of Gaussian, Inc. and that
 it will not use this program in any manner prohibited above.
 ---------------------------------------------------------------
  

 Cite this work as:
 Gaussian 16, Revision C.02,
 M. J. Frisch, G. W. Trucks, H. B. Schlegel, G. E. Scuseria, 
 M. A. Robb, J. R. Cheeseman, G. Scalmani, V. Barone, 
 G. A. Petersson, H. Nakatsuji, X. Li, M. Caricato, A. V. Marenich, 
 J. Bloino, B. G. Janesko, R. Gomperts, B. Mennucci, H. P. Hratchian, 
 J. V. Ortiz, A. F. Izmaylov, J. L. Sonnenberg, D. Williams-Young, 
 F. Ding, F. Lipparini, F. Egidi, J. Goings, B. Peng, A. Petrone, 
 T. Henderson, D. Ranasinghe, V. G. Zakrzewski, J. Gao, N. Rega, 
 G. Zheng, W. Liang, M. Hada, M. Ehara, K. Toyota, R. Fukuda, 
 J. Hasegawa, M. Ishida, T. Nakajima, Y. Honda, O. Kitao, H. Nakai, 
 T. Vreven, K. Throssell, J. A. Montgomery, Jr., J. E. Peralta, 
 F. Ogliaro, M. J. Bearpark, J. J. Heyd, E. N. Brothers, K. N. Kudin, 
 V. N. Staroverov, T. A. Keith, R. Kobayashi, J. Normand, 
 K. Raghavachari, A. P. Rendell, J. C. Burant, S. S. Iyengar, 
 J. Tomasi, M. Cossi, J. M. Millam, M. Klene, C. Adamo, R. Cammi, 
 J. W. Ochterski, R. L. Martin, K. Morokuma, O. Farkas, 
 J. B. Foresman, and D. J. Fox, Gaussian, Inc., Wallingford CT, 2019.
 
 ******************************************
 Gaussian 16:  ES64L-G16RevC.02  7-Dec-2021
                 1-Feb-2025 
 ******************************************
 %chk=Ferrocene_NH4_poly_0_gas
 SetSPE:  set environment variable "OMP_PROC_BIND" = "true"
 SetSPE:  set environment variable "OMP_PLACES" = "{0},{1},{2},{3},{4},{5},{6},{7},{8},{9},{10},{11},{12},{13},{14},{15},{16},{17},{18},{19},{20},{21},{22},{23},{24},{25},{26},{27},{28},{29},{30},{31},{32},{33},{34},{35},{36},{37},{38},{39},{40},{41},{42},{43},{44},{45},{46},{47},{48},{49},{50},{51},{52},{53},{54},{55},{56},{57},{58},{59},{60},{61},{62},{63},{64},{65},{66},{67},{68},{69},{70},{71},{72},{73},{74},{75},{76},{77},{78},{79},{80},{81},{82},{83},{84},{85},{86},{87},{88},{89},{90},{91},{92},{93},{94},{95},{96},{97},{98},{99},{100},{101},{102},{103},{104},{105},{106},{107},{108},{109},{110},{111},{112},{113},{114},{115},{116},{117},{118},{119},{120},{121},{122},{123},{124},{125},{126},{127}"
 SetLPE:    new flags="-opt 'Tsnet.Node.lindarsharg: ssh'  -nodelist 'i588.lcrc.anl.gov' -env GAUSS_MDEF=13421772800 -env GAUSS_EXEDIR="/gpfs/fs1/soft/improv/software/custom-built/gaussian/g16/bsd:/gpfs/fs1/soft/improv/software/custom-built/gaussian/g16" -env "OMP_PROC_BIND=true" -env "OMP_PLACES={0},{1},{2},{3},{4},{5},{6},{7},{8},{9},{10},{11},{12},{13},{14},{15},{16},{17},{18},{19},{20},{21},{22},{23},{24},{25},{26},{27},{28},{29},{30},{31},{32},{33},{34},{35},{36},{37},{38},{39},{40},{41},{42},{43},{44},{45},{46},{47},{48},{49},{50},{51},{52},{53},{54},{55},{56},{57},{58},{59},{60},{61},{62},{63},{64},{65},{66},{67},{68},{69},{70},{71},{72},{73},{74},{75},{76},{77},{78},{79},{80},{81},{82},{83},{84},{85},{86},{87},{88},{89},{90},{91},{92},{93},{94},{95},{96},{97},{98},{99},{100},{101},{102},{103},{104},{105},{106},{107},{108},{109},{110},{111},{112},{113},{114},{115},{116},{117},{118},{119},{120},{121},{122},{123},{124},{125},{126},{127}" -env GAUSS_ADEF="0,1,2,3,4,5,6,7,8,9,10,11,12,13,14,15,16,17,18,19,20,21,22,23,24,25,26,27,28,29,30,31,32,33,34,35,36,37,38,39,40,41,42,43,44,45,46,47,48,49,50,51,52,53,54,55,56,57,58,59,60,61,62,63,64,65,66,67,68,69,70,71,72,73,74,75,76,77,78,79,80,81,82,83,84,85,86,87,88,89,90,91,92,93,94,95,96,97,98,99,100,101,102,103,104,105,106,107,108,109,110,111,112,113,114,115,116,117,118,119,120,121,122,123,124,125,126,127""
 Will use up to    1 processors via Linda.
 ----------------------------------------------------------------------
 #p ub3lyp geom=allcheck guess=read chkbasis opt=(calcfc,cartesian) fre
 q scf=(novaracc,maxcycles=1000,fermi,xqc) empiricaldispersion=gd3
 ----------------------------------------------------------------------
 1/10=4,18=10,26=3,29=7,38=1/1,3;
 2/12=2,29=2,40=1/2;
 3/5=7,6=2,11=2,14=-4,25=1,30=1,67=1,71=2,74=-5,116=2,124=31,140=1/1,2,3;
 4/5=1/1;
 5/5=2,7=1000,8=3,13=1,22=13,38=6/2,8;
 8/6=4,10=90,11=11/1;
 11/6=1,8=1,9=11,15=111,16=1/1,2,10;
 10/6=1,13=1/2;
 6/7=2,8=2,9=2,10=2,28=1/1;
 7/7=1,10=1,25=1/1,2,3,16;
 1/10=4,18=10,26=3/3(2);
 2/29=1/2;
 99/12=1/99;
 2/29=1/2;
 3/5=7,6=1,11=2,14=-2,25=1,30=1,71=1,74=-5,82=7,116=2,124=31/1,2,3;
 4/5=5,16=3,69=1/1;
 5/5=2,7=1000,8=3,13=1,22=13,38=1/2,8;
 7/7=1/1,2,3,16;
 1/18=10,26=3/3(-5);
 2/29=1/2;
 6/7=2,8=2,9=2,10=2,19=2,28=1/1;
 99/9=1,12=1/99;
 Leave Link    1 at Sat Feb  1 16:48:53 2025, MaxMem=           0 cpu:               2.0 elap:               0.2
 (Enter /gpfs/fs1/soft/improv/software/custom-built/gaussian/g16/l101.exe)
 Structure from the checkpoint file:  "Ferrocene_NH4_poly_0_gas.chk"
 -------------------
 Title Card Required
 -------------------
 Charge =  0 Multiplicity = 1
 No Z-Matrix found in chk file; cartesian coordinates used.
  C                                                -1.070116524932      0.908369986255     -2.625383094648
  H                                                -0.457627273133      1.730268339120     -2.770116084665
  C                                                -2.255598617239      0.586439384120     -3.450283319103
  H                                                -2.538173954409      1.033395657358     -4.284885422345
  C                                                -2.747722178015     -0.629164594361     -2.764292478837
  C                                                -0.906903236706     -0.001415822323     -1.627259342389
  H                                                -0.095191659463      0.035923508418     -0.805396193785
  C                                                -1.926192209284     -0.996940420041     -1.674803486804
  H                                                -2.149365918696     -1.779703314590     -0.936967534540
  C                                                -3.046073436616      2.725119221852     -0.617460206341
  H                                                -2.375896917001      3.558438359003     -0.715089715774
  C                                                -4.134475961103      2.394886945783     -1.461823381995
  H                                                -4.450909517053      2.968480899549     -2.320382014087
  C                                                -4.730674857494      1.178553368217     -0.998631013928
  H                                                -5.566950832958      0.645142320409     -1.409032862502
  C                                                -2.963508234633      1.706719468137      0.408651716334
  H                                                -2.213180277967      1.663110752005      1.176955881876
  C                                                -4.005782647083      0.761228201995      0.155782931090
  H                                                -4.199416515202     -0.127847127994      0.705257027033
  Fe                                               -2.769864418456      0.873570685393     -1.476925407983
  C                                                -3.997361184198     -1.277311278587     -3.225343564003
  H                                                -4.555268166618     -0.637942042997     -3.926305767455
  H                                                -4.660017510708     -1.538414155238     -2.383032453450
  N                                                -3.865292292256     -2.622960972071     -4.001458002477
  C                                                -3.186792461840     -3.650890125027     -3.076660658320
  H                                                -2.177845403531     -3.269494125499     -2.960326543888
  H                                                -3.704911923256     -3.569974594558     -2.141693585095
  C                                                -3.049392714399     -2.410918800995     -5.248462268274
  H                                                -2.968975784071     -3.353879380996     -5.788813420413
  H                                                -3.575909384131     -1.670752403775     -5.847574894865
  H                                                -2.079160368638     -2.024697007828     -4.958251666383
  C                                                -5.230786832522     -3.060754786956     -4.382451213937
  H                                                -5.703140636057     -2.302536917266     -4.983945151426
  H                                                -5.226127330310     -4.013730059923     -4.915588495170
  H                                                -5.823911065551     -3.195188008934     -3.476425289038
  P                                                -5.851003078029     -2.851937231684     -0.126893409355
  F                                                -6.289432111985     -1.533346113552     -1.106588230438
  F                                                -5.866633785243     -3.783919773010     -1.417703165578
  F                                                -7.448851533097     -3.110096602835      0.119195720430
  F                                                -5.451059597409     -4.102588655833      0.774607356742
  F                                                -5.816507635203     -1.829176485087      1.125486982740
  F                                                -4.276210464677     -2.494169870933     -0.409167050612
  C                                                -3.190545958251     -5.069185277507     -3.592341457519
  C                                                -4.198677513598     -5.948774022725     -3.218987771719
  C                                                -2.135287818616     -5.528398823151     -4.407409173250
  C                                                -4.189402130678     -7.262989233664     -3.671766882927
  H                                                -4.997771461099     -5.584346440005     -2.569001573961
  C                                                -2.128034753062     -6.831062260136     -4.854124651104
  H                                                -1.330316558111     -4.858325402990     -4.679158308231
  C                                                -3.150655190255     -7.705821714029     -4.503842489373
  H                                                -4.991816609489     -7.938034552216     -3.383105676950
  H                                                -1.334028962573     -7.191220094418     -5.508115435018
  H                                                -3.182781893097     -8.723361813883     -4.864799156291
 Recover connectivity data from disk.
 ITRead=  0  0  0  0  0  0  0  0  0  0  0  0  0  0  0  0  0  0  0  0
 ITRead=  0  0  0  0  0  0  0  0  0  0  0  0  0  0  0  0  0  0  0  0
 ITRead=  0  0  0  0  0  0  0  0  0  0  0  0  0
 MicOpt= -1 -1 -1 -1 -1 -1 -1 -1 -1 -1 -1 -1 -1 -1 -1 -1 -1 -1 -1 -1
 MicOpt= -1 -1 -1 -1 -1 -1 -1 -1 -1 -1 -1 -1 -1 -1 -1 -1 -1 -1 -1 -1
 MicOpt= -1 -1 -1 -1 -1 -1 -1 -1 -1 -1 -1 -1 -1
 NAtoms=     53 NQM=       53 NQMF=       0 NMMI=      0 NMMIF=      0
                NMic=       0 NMicF=      0.
                    Isotopes and Nuclear Properties:
 (Nuclear quadrupole moments (NQMom) in fm**2, nuclear magnetic moments (NMagM)
  in nuclear magnetons)

  Atom         1           2           3           4           5           6           7           8           9          10
 IAtWgt=          12           1          12           1          12          12           1          12           1          12
 AtmWgt=  12.0000000   1.0078250  12.0000000   1.0078250  12.0000000  12.0000000   1.0078250  12.0000000   1.0078250  12.0000000
 NucSpn=           0           1           0           1           0           0           1           0           1           0
 AtZEff=   3.6000000   1.0000000   3.6000000   1.0000000   3.6000000   3.6000000   1.0000000   3.6000000   1.0000000   3.6000000
 NQMom=    0.0000000   0.0000000   0.0000000   0.0000000   0.0000000   0.0000000   0.0000000   0.0000000   0.0000000   0.0000000
 NMagM=    0.0000000   2.7928460   0.0000000   2.7928460   0.0000000   0.0000000   2.7928460   0.0000000   2.7928460   0.0000000
 AtZNuc=   6.0000000   1.0000000   6.0000000   1.0000000   6.0000000   6.0000000   1.0000000   6.0000000   1.0000000   6.0000000

  Atom        11          12          13          14          15          16          17          18          19          20
 IAtWgt=           1          12           1          12           1          12           1          12           1          56
 AtmWgt=   1.0078250  12.0000000   1.0078250  12.0000000   1.0078250  12.0000000   1.0078250  12.0000000   1.0078250  55.9349393
 NucSpn=           1           0           1           0           1           0           1           0           1           0
 AtZEff=   1.0000000   3.6000000   1.0000000   3.6000000   1.0000000   3.6000000   1.0000000   3.6000000   1.0000000  25.2200000
 NQMom=    0.0000000   0.0000000   0.0000000   0.0000000   0.0000000   0.0000000   0.0000000   0.0000000   0.0000000   0.0000000
 NMagM=    2.7928460   0.0000000   2.7928460   0.0000000   2.7928460   0.0000000   2.7928460   0.0000000   2.7928460   0.0000000
 AtZNuc=   1.0000000   6.0000000   1.0000000   6.0000000   1.0000000   6.0000000   1.0000000   6.0000000   1.0000000  26.0000000

  Atom        21          22          23          24          25          26          27          28          29          30
 IAtWgt=          12           1           1          14          12           1           1          12           1           1
 AtmWgt=  12.0000000   1.0078250   1.0078250  14.0030740  12.0000000   1.0078250   1.0078250  12.0000000   1.0078250   1.0078250
 NucSpn=           0           1           1           2           0           1           1           0           1           1
 AtZEff=   3.6000000   1.0000000   1.0000000   4.5500000   3.6000000   1.0000000   1.0000000   3.6000000   1.0000000   1.0000000
 NQMom=    0.0000000   0.0000000   0.0000000   2.0440000   0.0000000   0.0000000   0.0000000   0.0000000   0.0000000   0.0000000
 NMagM=    0.0000000   2.7928460   2.7928460   0.4037610   0.0000000   2.7928460   2.7928460   0.0000000   2.7928460   2.7928460
 AtZNuc=   6.0000000   1.0000000   1.0000000   7.0000000   6.0000000   1.0000000   1.0000000   6.0000000   1.0000000   1.0000000

  Atom        31          32          33          34          35          36          37          38          39          40
 IAtWgt=           1          12           1           1           1          31          19          19          19          19
 AtmWgt=   1.0078250  12.0000000   1.0078250   1.0078250   1.0078250  30.9737634  18.9984032  18.9984032  18.9984032  18.9984032
 NucSpn=           1           0           1           1           1           1           1           1           1           1
 AtZEff=   1.0000000   3.6000000   1.0000000   1.0000000   1.0000000  12.9400000   6.7500000   6.7500000   6.7500000   6.7500000
 NQMom=    0.0000000   0.0000000   0.0000000   0.0000000   0.0000000   0.0000000   0.0000000   0.0000000   0.0000000   0.0000000
 NMagM=    2.7928460   0.0000000   2.7928460   2.7928460   2.7928460   1.1316000   2.6288670   2.6288670   2.6288670   2.6288670
 AtZNuc=   1.0000000   6.0000000   1.0000000   1.0000000   1.0000000  15.0000000   9.0000000   9.0000000   9.0000000   9.0000000

  Atom        41          42          43          44          45          46          47          48          49          50
 IAtWgt=          19          19          12          12          12          12           1          12           1          12
 AtmWgt=  18.9984032  18.9984032  12.0000000  12.0000000  12.0000000  12.0000000   1.0078250  12.0000000   1.0078250  12.0000000
 NucSpn=           1           1           0           0           0           0           1           0           1           0
 AtZEff=   6.7500000   6.7500000   3.6000000   3.6000000   3.6000000   3.6000000   1.0000000   3.6000000   1.0000000   3.6000000
 NQMom=    0.0000000   0.0000000   0.0000000   0.0000000   0.0000000   0.0000000   0.0000000   0.0000000   0.0000000   0.0000000
 NMagM=    2.6288670   2.6288670   0.0000000   0.0000000   0.0000000   0.0000000   2.7928460   0.0000000   2.7928460   0.0000000
 AtZNuc=   9.0000000   9.0000000   6.0000000   6.0000000   6.0000000   6.0000000   1.0000000   6.0000000   1.0000000   6.0000000

  Atom        51          52          53
 IAtWgt=           1           1           1
 AtmWgt=   1.0078250   1.0078250   1.0078250
 NucSpn=           1           1           1
 AtZEff=   1.0000000   1.0000000   1.0000000
 NQMom=    0.0000000   0.0000000   0.0000000
 NMagM=    2.7928460   2.7928460   2.7928460
 AtZNuc=   1.0000000   1.0000000   1.0000000
 Leave Link  101 at Sat Feb  1 16:48:53 2025, MaxMem= 13421772800 cpu:               0.4 elap:               0.1
 (Enter /gpfs/fs1/soft/improv/software/custom-built/gaussian/g16/l103.exe)

 GradGradGradGradGradGradGradGradGradGradGradGradGradGradGradGradGradGrad
 Berny optimization.
 Initialization pass.
 No Z-matrix variables, so optimization will use Cartesian coordinates.
 Trust Radius=3.00D-01 FncErr=1.00D-07 GrdErr=1.00D-06 EigMax=2.50D+02 EigMin=1.00D-04
 Number of steps in this run=    169 maximum allowed number of steps=    318.
 GradGradGradGradGradGradGradGradGradGradGradGradGradGradGradGradGradGrad

 Leave Link  103 at Sat Feb  1 16:48:54 2025, MaxMem= 13421772800 cpu:               0.4 elap:               0.1
 (Enter /gpfs/fs1/soft/improv/software/custom-built/gaussian/g16/l202.exe)
 Stoichiometry    C20H24F6FeNP
 Framework group  C1[X(C20H24F6FeNP)]
 Deg. of freedom   153
 Full point group                 C1      NOp   1
 RotChk:  IX=1 Diff= 3.93D-16
 Largest Abelian subgroup         C1      NOp   1
 Largest concise Abelian subgroup C1      NOp   1
                         Standard orientation:                         
 ---------------------------------------------------------------------
 Center     Atomic      Atomic             Coordinates (Angstroms)
 Number     Number       Type             X           Y           Z
 ---------------------------------------------------------------------
      1          6           0       -2.673062    3.010763    0.632631
      2          1           0       -3.440967    3.700661    0.709902
      3          6           0       -1.982764    2.657318   -0.627541
      4          1           0       -2.082975    3.100724   -1.504769
      5          6           0       -1.047669    1.615373   -0.147532
      6          6           0       -2.188367    2.285028    1.676172
      7          1           0       -2.580380    2.319679    2.762843
      8          6           0       -1.156513    1.400891    1.245058
      9          1           0       -0.666164    0.597731    1.811995
     10          6           0       -4.903354    0.586845    0.010412
     11          1           0       -5.703332    1.288459    0.154848
     12          6           0       -4.206748    0.314395   -1.192556
     13          1           0       -4.413789    0.773472   -2.147881
     14          6           0       -3.184007   -0.652210   -0.929603
     15          1           0       -2.471497   -1.074465   -1.612497
     16          6           0       -4.320312   -0.235815    1.049717
     17          1           0       -4.612830   -0.224233    2.083876
     18          6           0       -3.261181   -0.988825    0.453522
     19          1           0       -2.608152   -1.664046    0.951017
     20         26           0       -2.898666    1.015270    0.212610
     21          6           0       -0.175231    0.909926   -1.114721
     22          1           0       -0.478330    1.102532   -2.155123
     23          1           0       -0.170656   -0.180040   -0.945221
     24          7           0        1.340666    1.274104   -1.114051
     25          6           0        1.917424    0.944197    0.275468
     26          1           0        1.435103    1.659352    0.933412
     27          1           0        1.558234   -0.040509    0.500178
     28          6           0        1.510696    2.736846   -1.425741
     29          1           0        2.572758    2.981003   -1.431398
     30          1           0        1.075209    2.902290   -2.409093
     31          1           0        0.966207    3.308194   -0.682886
     32          6           0        1.998704    0.471381   -2.174247
     33          1           0        1.542609    0.680567   -3.127151
     34          1           0        3.074021    0.654603   -2.224655
     35          1           0        1.856887   -0.587937   -1.954055
     36         15           0        0.364723   -2.797036    0.102944
     37          9           0       -0.484297   -2.203861   -1.245393
     38          9           0        1.687824   -2.114494   -0.461470
     39          9           0        0.655136   -4.154285   -0.765308
     40          9           0        1.181067   -3.352369    1.352735
     41          9           0       -1.031175   -3.423178    0.627446
     42          9           0       -0.003943   -1.413232    0.900954
     43          6           0        3.421320    1.022299    0.373949
     44          6           0        4.196531   -0.115345    0.188984
     45          6           0        4.045605    2.239592    0.716364
     46          6           0        5.580195   -0.050714    0.305404
     47          1           0        3.696736   -1.056065   -0.054103
     48          6           0        5.416541    2.300864    0.831772
     49          1           0        3.447458    3.124177    0.891165
     50          6           0        6.196570    1.169287    0.620245
     51          1           0        6.176832   -0.945785    0.144923
     52          1           0        5.914191    3.241440    1.067407
     53          1           0        7.274867    1.198197    0.676358
 ---------------------------------------------------------------------
 Rotational constants (GHZ):           0.2105753           0.1158501           0.0850300
 Leave Link  202 at Sat Feb  1 16:48:54 2025, MaxMem= 13421772800 cpu:               0.6 elap:               0.1
 (Enter /gpfs/fs1/soft/improv/software/custom-built/gaussian/g16/l301.exe)
 Basis read from chk: "Ferrocene_NH4_poly_0_gas.chk" (6D, 7F)
 No pseudopotential information found on chk file.
 There are  1056 symmetry adapted cartesian basis functions of A   symmetry.
 There are   960 symmetry adapted basis functions of A   symmetry.
   960 basis functions,  1553 primitive gaussians,  1056 cartesian basis functions
   123 alpha electrons      123 beta electrons
       nuclear repulsion energy      4034.3691575306 Hartrees.
 IExCor=  402 DFT=T Ex+Corr=B3LYP ExCW=0 ScaHFX=  0.200000
 ScaDFX=  0.800000  0.720000  1.000000  0.810000 ScalE2=  1.000000  1.000000
 IRadAn=      5 IRanWt=     -1 IRanGd=            0 ICorTp=0 IEmpDi=131
 NAtoms=   53 NActive=   53 NUniq=   53 SFac= 1.00D+00 NAtFMM=   60 NAOKFM=F Big=F
 Integral buffers will be    131072 words long.
 Raffenetti 2 integral format.
 Two-electron integral symmetry is turned on.
 R6Disp:  Grimme-D3 Dispersion energy=       -0.0785156073 Hartrees.
 Nuclear repulsion after empirical dispersion term =     4034.2906419233 Hartrees.
 No density basis found on file  20724.
 Leave Link  301 at Sat Feb  1 16:48:54 2025, MaxMem= 13421772800 cpu:               0.4 elap:               0.1
 (Enter /gpfs/fs1/soft/improv/software/custom-built/gaussian/g16/l302.exe)
 NPDir=0 NMtPBC=     1 NCelOv=     1 NCel=       1 NClECP=     1 NCelD=      1
         NCelK=      1 NCelE2=     1 NClLst=     1 CellRange=     0.0.
 One-electron integrals computed using PRISM.
 One-electron integral symmetry used in STVInt
 NBasis=   960 RedAO= T EigKep=  1.20D-04  NBF=   960
 NBsUse=   960 1.00D-06 EigRej= -1.00D+00 NBFU=   960
 Precomputing XC quadrature grid using
 IXCGrd= 4 IRadAn=           5 IRanWt=          -1 IRanGd=           0 AccXCQ= 0.00D+00.
 Generated NRdTot=       0 NPtTot=           0 NUsed=           0 NTot=          32
 NSgBfM=  1037  1037  1037  1037  1037 MxSgAt=    53 MxSgA2=    53.
 Leave Link  302 at Sat Feb  1 16:48:56 2025, MaxMem= 13421772800 cpu:              79.3 elap:               1.2
 (Enter /gpfs/fs1/soft/improv/software/custom-built/gaussian/g16/l303.exe)
 DipDrv:  MaxL=1.
 Leave Link  303 at Sat Feb  1 16:48:56 2025, MaxMem= 13421772800 cpu:               3.2 elap:               0.1
 (Enter /gpfs/fs1/soft/improv/software/custom-built/gaussian/g16/l401.exe)
 Initial guess from the checkpoint file:  "Ferrocene_NH4_poly_0_gas.chk"
 B after Tr=    -0.000000    0.000000    0.000000
         Rot=    1.000000    0.000000   -0.000000    0.000000 Ang=   0.00 deg.
 Guess basis will be translated and rotated to current coordinates.
 JPrj=2 DoOrth=T DoCkMO=T.
 Initial guess <Sx>= 0.0000 <Sy>= 0.0000 <Sz>= 0.0000 <S**2>=-0.0000 S=-0.0000
 Leave Link  401 at Sat Feb  1 16:48:59 2025, MaxMem= 13421772800 cpu:             154.1 elap:               2.3
 (Enter /gpfs/fs1/soft/improv/software/custom-built/gaussian/g16/l502.exe)
 Integral symmetry usage will be decided dynamically.
 UHF open shell SCF:
 Using DIIS extrapolation, IDIIS=    10.
 NGot= 13421772800 LenX= 13419396149 LenY= 13418279957
 Requested convergence on RMS density matrix=1.00D-08 within 128 cycles.
 Requested convergence on MAX density matrix=1.00D-06.
 Requested convergence on             energy=1.00D-06.
 Level shift goal  0.100 maximum shift  0.100.
 No special actions if energy rises.
 Dynamic level shift is on during FON iterations.
 Fock matrices will be formed incrementally for  20 cycles.

 Cycle   1  Pass 1  IDiag  1:
 FoFJK:  IHMeth= 1 ICntrl=       0 DoSepK=F KAlg= 0 I1Cent=           0 FoldK=F
 IRaf= 710000000 NMat=       1 IRICut=       1 DoRegI=T DoRafI=F ISym2E= 0 IDoP0=0 IntGTp=1.
 FoFCou: FMM=F IPFlag=           0 FMFlag=      100000 FMFlg1=           0
         NFxFlg=           0 DoJE=F BraDBF=F KetDBF=F FulRan=T
         wScrn=  0.000000 ICntrl=         0 IOpCl=  1 I1Cent=           0 NGrid=           0
         NMat0=    1 NMatS0=      1 NMatT0=    0 NMatD0=    1 NMtDS0=    0 NMtDT0=    0
 Symmetry not used in FoFCou.
 E= -3035.69893178527    
 DIIS: error= 1.97D-08 at cycle   1 NSaved=   1.
 NSaved= 1 IEnMin= 1 EnMin= -3035.69893178527     IErMin= 1 ErrMin= 1.97D-08
 ErrMax= 1.97D-08  0.00D+00 EMaxC= 1.00D+00 BMatC= 3.65D-12 BMatP= 3.65D-12
 IDIUse=1 WtCom= 1.00D+00 WtEn= 0.00D+00
 Coeff-Com:  0.100D+01
 Coeff:      0.100D+01
 Gap=     0.162 Goal=     0.100 Shift=    0.000
 Gap=     0.162 Goal=     0.100 Shift=    0.000
 RMSDP=3.17D-09 MaxDP=2.46D-07              OVMax= 8.92D-07

 SCF Done:  E(UB3LYP) =  -3035.69893179     A.U. after    1 cycles
            NFock=  1  Conv=0.32D-08     -V/T= 2.0045
 <Sx>= 0.0000 <Sy>= 0.0000 <Sz>= 0.0000 <S**2>=-0.0000 S=-0.0000
 <L.S>=  0.00000000000    
 KE= 3.022110216195D+03 PE=-1.524357619254D+04 EE= 5.151476402634D+03
 Annihilation of the first spin contaminant:
 S**2 before annihilation    -0.0000,   after     0.0000
 Leave Link  502 at Sat Feb  1 16:49:10 2025, MaxMem= 13421772800 cpu:            1264.8 elap:              11.0
 (Enter /gpfs/fs1/soft/improv/software/custom-built/gaussian/g16/l508.exe)
 QCSCF skips out because SCF is already converged.
 Leave Link  508 at Sat Feb  1 16:49:10 2025, MaxMem= 13421772800 cpu:               0.3 elap:               0.0
 (Enter /gpfs/fs1/soft/improv/software/custom-built/gaussian/g16/l801.exe)
 DoSCS=F DFT=T ScalE2(SS,OS)=  1.000000  1.000000
 Range of M.O.s used for correlation:     1   960
 NBasis=   960 NAE=   123 NBE=   123 NFC=     0 NFV=     0
 NROrb=    960 NOA=   123 NOB=   123 NVA=   837 NVB=   837

 **** Warning!!: The largest alpha MO coefficient is  0.61590125D+02


 **** Warning!!: The largest beta MO coefficient is  0.61590125D+02

 Leave Link  801 at Sat Feb  1 16:49:11 2025, MaxMem= 13421772800 cpu:               0.4 elap:               0.0
 (Enter /gpfs/fs1/soft/improv/software/custom-built/gaussian/g16/l1101.exe)
 Using compressed storage, NAtomX=    53.
 Will process     54 centers per pass.
 R6Disp: Adding Grimme-D3 dispersion energy 1st derivatives to the gradient.
 Leave Link 1101 at Sat Feb  1 16:49:15 2025, MaxMem= 13421772800 cpu:             386.0 elap:               4.0
 (Enter /gpfs/fs1/soft/improv/software/custom-built/gaussian/g16/l1102.exe)
 Symmetrizing basis deriv contribution to polar:
 IMax=3 JMax=2 DiffMx= 0.00D+00
 Leave Link 1102 at Sat Feb  1 16:49:16 2025, MaxMem= 13421772800 cpu:               1.8 elap:               0.1
 (Enter /gpfs/fs1/soft/improv/software/custom-built/gaussian/g16/l1110.exe)
 Forming Gx(P) for the SCF density, NAtomX=    53.
 Integral derivatives from FoFJK, PRISM(SPDF).
 Do as many integral derivatives as possible in FoFJK.
 G2DrvN: MDV=   13421766569.
 G2DrvN: will do    27 centers at a time, making    2 passes.
 G2DrvN:  IPasSy=1 do centers    0 through   26.
 Calling FoFCou, ICntrl=  3107 FMM=F I1Cent=   0 AccDes= 0.00D+00.
 FoFJK:  IHMeth= 1 ICntrl=    3107 DoSepK=F KAlg= 0 I1Cent=           0 FoldK=F
 IRaf=         0 NMat=       1 IRICut=       1 DoRegI=T DoRafI=F ISym2E= 0 IDoP0=0 IntGTp=1.
 FoFCou: FMM=F IPFlag=           0 FMFlag=      100000 FMFlg1=           0
         NFxFlg=           0 DoJE=F BraDBF=F KetDBF=F FulRan=T
         wScrn=  0.000000 ICntrl=      3107 IOpCl=  1 I1Cent=           0 NGrid=           0
         NMat0=    1 NMatS0=      1 NMatT0=    0 NMatD0=    1 NMtDS0=    0 NMtDT0=    0
 Symmetry not used in FoFCou.
 G2DrvN:  IPasSy=1 do centers   27 through   53.
 Calling FoFCou, ICntrl=  3107 FMM=F I1Cent=   0 AccDes= 0.00D+00.
 End of G2Drv F.D. properties file   721 does not exist.
 End of G2Drv F.D. properties file   722 does not exist.
 End of G2Drv F.D. properties file   788 does not exist.
 Leave Link 1110 at Sat Feb  1 16:53:48 2025, MaxMem= 13421772800 cpu:           34491.7 elap:             272.5
 (Enter /gpfs/fs1/soft/improv/software/custom-built/gaussian/g16/l1002.exe)
 Minotr:  UHF open shell wavefunction.
          IDoAtm=11111111111111111111111111111111111111111111111111
          IDoAtm=111
          Direct CPHF calculation.
          Differentiating once with respect to nuclear coordinates.
          Requested convergence is 1.0D-08 RMS, and 1.0D-07 maximum.
          Secondary convergence is 1.0D-12 RMS, and 1.0D-12 maximum.
          NewPWx=T KeepS1=F KeepF1=F KeepIn=T MapXYZ=F SortEE=F KeepMc=T.
        16306 words used for storage of precomputed grid.
 Two-electron integrals replicated using symmetry.
          MDV=   13421772800 using IRadAn=       1.
          Solving linear equations simultaneously, MaxMat=     384.
 FoF2E skips out because all densities are zero.
 CalDSu exits because no D1Ps are significant.
 FoFJK:  IHMeth= 1 ICntrl=       0 DoSepK=F KAlg= 0 I1Cent=           0 FoldK=F
 IRaf= 710000000 NMat=      32 IRICut=       1 DoRegI=T DoRafI=F ISym2E= 2 IDoP0=3 IntGTp=2.
 FoFCou: FMM=F IPFlag=           0 FMFlag=      100000 FMFlg1=           0
         NFxFlg=           0 DoJE=F BraDBF=F KetDBF=F FulRan=T
         wScrn=  0.000000 ICntrl=         0 IOpCl=  1 I1Cent=           0 NGrid=           0
         NMat0=   32 NMatS0=     32 NMatT0=    0 NMatD0=   32 NMtDS0=    0 NMtDT0=    0
 Integrals replicated using symmetry in FoFCou.
          There are   162 degrees of freedom in the 1st order CPHF.  IDoFFX=6 NUNeed=     0.
    159 vectors produced by pass  0 Test12= 2.06D-13 1.00D-09 XBig12= 3.43D-01 1.74D-01.
 AX will form    32 AO Fock derivatives at one time.
    159 vectors produced by pass  1 Test12= 2.06D-13 1.00D-09 XBig12= 7.30D-02 5.11D-02.
    159 vectors produced by pass  2 Test12= 2.06D-13 1.00D-09 XBig12= 1.38D-03 2.94D-03.
    156 vectors produced by pass  3 Test12= 2.06D-13 1.00D-09 XBig12= 8.89D-06 2.01D-04.
    156 vectors produced by pass  4 Test12= 2.06D-13 1.00D-09 XBig12= 2.24D-08 9.51D-06.
    150 vectors produced by pass  5 Test12= 2.06D-13 1.00D-09 XBig12= 3.70D-11 2.90D-07.
     42 vectors produced by pass  6 Test12= 2.06D-13 1.00D-09 XBig12= 5.58D-14 9.70D-09.
 InvSVY:  IOpt=1 It=  1 EMax= 1.11D-15
 Solved reduced A of dimension   981 with   162 vectors.
 End of Minotr F.D. properties file   721 does not exist.
 End of Minotr F.D. properties file   722 does not exist.
 End of Minotr F.D. properties file   788 does not exist.
 Leave Link 1002 at Sat Feb  1 17:23:31 2025, MaxMem= 13421772800 cpu:          222497.8 elap:            1781.9
 (Enter /gpfs/fs1/soft/improv/software/custom-built/gaussian/g16/l601.exe)
 Copying SCF densities to generalized density rwf, IOpCl= 1 IROHF=0.

 **********************************************************************

            Population analysis using the SCF Density.

 **********************************************************************

 Orbital symmetries:
 Alpha Orbitals:
       Occupied  (A) (A) (A) (A) (A) (A) (A) (A) (A) (A) (A) (A)
                 (A) (A) (A) (A) (A) (A) (A) (A) (A) (A) (A) (A)
                 (A) (A) (A) (A) (A) (A) (A) (A) (A) (A) (A) (A)
                 (A) (A) (A) (A) (A) (A) (A) (A) (A) (A) (A) (A)
                 (A) (A) (A) (A) (A) (A) (A) (A) (A) (A) (A) (A)
                 (A) (A) (A) (A) (A) (A) (A) (A) (A) (A) (A) (A)
                 (A) (A) (A) (A) (A) (A) (A) (A) (A) (A) (A) (A)
                 (A) (A) (A) (A) (A) (A) (A) (A) (A) (A) (A) (A)
                 (A) (A) (A) (A) (A) (A) (A) (A) (A) (A) (A) (A)
                 (A) (A) (A) (A) (A) (A) (A) (A) (A) (A) (A) (A)
                 (A) (A) (A)
       Virtual   (A) (A) (A) (A) (A) (A) (A) (A) (A) (A) (A) (A)
                 (A) (A) (A) (A) (A) (A) (A) (A) (A) (A) (A) (A)
                 (A) (A) (A) (A) (A) (A) (A) (A) (A) (A) (A) (A)
                 (A) (A) (A) (A) (A) (A) (A) (A) (A) (A) (A) (A)
                 (A) (A) (A) (A) (A) (A) (A) (A) (A) (A) (A) (A)
                 (A) (A) (A) (A) (A) (A) (A) (A) (A) (A) (A) (A)
                 (A) (A) (A) (A) (A) (A) (A) (A) (A) (A) (A) (A)
                 (A) (A) (A) (A) (A) (A) (A) (A) (A) (A) (A) (A)
                 (A) (A) (A) (A) (A) (A) (A) (A) (A) (A) (A) (A)
                 (A) (A) (A) (A) (A) (A) (A) (A) (A) (A) (A) (A)
                 (A) (A) (A) (A) (A) (A) (A) (A) (A) (A) (A) (A)
                 (A) (A) (A) (A) (A) (A) (A) (A) (A) (A) (A) (A)
                 (A) (A) (A) (A) (A) (A) (A) (A) (A) (A) (A) (A)
                 (A) (A) (A) (A) (A) (A) (A) (A) (A) (A) (A) (A)
                 (A) (A) (A) (A) (A) (A) (A) (A) (A) (A) (A) (A)
                 (A) (A) (A) (A) (A) (A) (A) (A) (A) (A) (A) (A)
                 (A) (A) (A) (A) (A) (A) (A) (A) (A) (A) (A) (A)
                 (A) (A) (A) (A) (A) (A) (A) (A) (A) (A) (A) (A)
                 (A) (A) (A) (A) (A) (A) (A) (A) (A) (A) (A) (A)
                 (A) (A) (A) (A) (A) (A) (A) (A) (A) (A) (A) (A)
                 (A) (A) (A) (A) (A) (A) (A) (A) (A) (A) (A) (A)
                 (A) (A) (A) (A) (A) (A) (A) (A) (A) (A) (A) (A)
                 (A) (A) (A) (A) (A) (A) (A) (A) (A) (A) (A) (A)
                 (A) (A) (A) (A) (A) (A) (A) (A) (A) (A) (A) (A)
                 (A) (A) (A) (A) (A) (A) (A) (A) (A) (A) (A) (A)
                 (A) (A) (A) (A) (A) (A) (A) (A) (A) (A) (A) (A)
                 (A) (A) (A) (A) (A) (A) (A) (A) (A) (A) (A) (A)
                 (A) (A) (A) (A) (A) (A) (A) (A) (A) (A) (A) (A)
                 (A) (A) (A) (A) (A) (A) (A) (A) (A) (A) (A) (A)
                 (A) (A) (A) (A) (A) (A) (A) (A) (A) (A) (A) (A)
                 (A) (A) (A) (A) (A) (A) (A) (A) (A) (A) (A) (A)
                 (A) (A) (A) (A) (A) (A) (A) (A) (A) (A) (A) (A)
                 (A) (A) (A) (A) (A) (A) (A) (A) (A) (A) (A) (A)
                 (A) (A) (A) (A) (A) (A) (A) (A) (A) (A) (A) (A)
                 (A) (A) (A) (A) (A) (A) (A) (A) (A) (A) (A) (A)
                 (A) (A) (A) (A) (A) (A) (A) (A) (A) (A) (A) (A)
                 (A) (A) (A) (A) (A) (A) (A) (A) (A) (A) (A) (A)
                 (A) (A) (A) (A) (A) (A) (A) (A) (A) (A) (A) (A)
                 (A) (A) (A) (A) (A) (A) (A) (A) (A) (A) (A) (A)
                 (A) (A) (A) (A) (A) (A) (A) (A) (A) (A) (A) (A)
                 (A) (A) (A) (A) (A) (A) (A) (A) (A) (A) (A) (A)
                 (A) (A) (A) (A) (A) (A) (A) (A) (A) (A) (A) (A)
                 (A) (A) (A) (A) (A) (A) (A) (A) (A) (A) (A) (A)
                 (A) (A) (A) (A) (A) (A) (A) (A) (A) (A) (A) (A)
                 (A) (A) (A) (A) (A) (A) (A) (A) (A) (A) (A) (A)
                 (A) (A) (A) (A) (A) (A) (A) (A) (A) (A) (A) (A)
                 (A) (A) (A) (A) (A) (A) (A) (A) (A) (A) (A) (A)
                 (A) (A) (A) (A) (A) (A) (A) (A) (A) (A) (A) (A)
                 (A) (A) (A) (A) (A) (A) (A) (A) (A) (A) (A) (A)
                 (A) (A) (A) (A) (A) (A) (A) (A) (A) (A) (A) (A)
                 (A) (A) (A) (A) (A) (A) (A) (A) (A) (A) (A) (A)
                 (A) (A) (A) (A) (A) (A) (A) (A) (A) (A) (A) (A)
                 (A) (A) (A) (A) (A) (A) (A) (A) (A) (A) (A) (A)
                 (A) (A) (A) (A) (A) (A) (A) (A) (A) (A) (A) (A)
                 (A) (A) (A) (A) (A) (A) (A) (A) (A) (A) (A) (A)
                 (A) (A) (A) (A) (A) (A) (A) (A) (A) (A) (A) (A)
                 (A) (A) (A) (A) (A) (A) (A) (A) (A) (A) (A) (A)
                 (A) (A) (A) (A) (A) (A) (A) (A) (A) (A) (A) (A)
                 (A) (A) (A) (A) (A) (A) (A) (A) (A) (A) (A) (A)
                 (A) (A) (A) (A) (A) (A) (A) (A) (A) (A) (A) (A)
                 (A) (A) (A) (A) (A) (A) (A) (A) (A) (A) (A) (A)
                 (A) (A) (A) (A) (A) (A) (A) (A) (A) (A) (A) (A)
                 (A) (A) (A) (A) (A) (A) (A) (A) (A) (A) (A) (A)
                 (A) (A) (A) (A) (A) (A) (A) (A) (A) (A) (A) (A)
                 (A) (A) (A) (A) (A) (A) (A) (A) (A) (A) (A) (A)
                 (A) (A) (A) (A) (A) (A) (A) (A) (A) (A) (A) (A)
                 (A) (A) (A) (A) (A) (A) (A) (A) (A) (A) (A) (A)
                 (A) (A) (A) (A) (A) (A) (A) (A) (A) (A) (A) (A)
                 (A) (A) (A) (A) (A) (A) (A) (A) (A) (A) (A) (A)
                 (A) (A) (A) (A) (A) (A) (A) (A) (A)
 Beta  Orbitals:
       Occupied  (A) (A) (A) (A) (A) (A) (A) (A) (A) (A) (A) (A)
                 (A) (A) (A) (A) (A) (A) (A) (A) (A) (A) (A) (A)
                 (A) (A) (A) (A) (A) (A) (A) (A) (A) (A) (A) (A)
                 (A) (A) (A) (A) (A) (A) (A) (A) (A) (A) (A) (A)
                 (A) (A) (A) (A) (A) (A) (A) (A) (A) (A) (A) (A)
                 (A) (A) (A) (A) (A) (A) (A) (A) (A) (A) (A) (A)
                 (A) (A) (A) (A) (A) (A) (A) (A) (A) (A) (A) (A)
                 (A) (A) (A) (A) (A) (A) (A) (A) (A) (A) (A) (A)
                 (A) (A) (A) (A) (A) (A) (A) (A) (A) (A) (A) (A)
                 (A) (A) (A) (A) (A) (A) (A) (A) (A) (A) (A) (A)
                 (A) (A) (A)
       Virtual   (A) (A) (A) (A) (A) (A) (A) (A) (A) (A) (A) (A)
                 (A) (A) (A) (A) (A) (A) (A) (A) (A) (A) (A) (A)
                 (A) (A) (A) (A) (A) (A) (A) (A) (A) (A) (A) (A)
                 (A) (A) (A) (A) (A) (A) (A) (A) (A) (A) (A) (A)
                 (A) (A) (A) (A) (A) (A) (A) (A) (A) (A) (A) (A)
                 (A) (A) (A) (A) (A) (A) (A) (A) (A) (A) (A) (A)
                 (A) (A) (A) (A) (A) (A) (A) (A) (A) (A) (A) (A)
                 (A) (A) (A) (A) (A) (A) (A) (A) (A) (A) (A) (A)
                 (A) (A) (A) (A) (A) (A) (A) (A) (A) (A) (A) (A)
                 (A) (A) (A) (A) (A) (A) (A) (A) (A) (A) (A) (A)
                 (A) (A) (A) (A) (A) (A) (A) (A) (A) (A) (A) (A)
                 (A) (A) (A) (A) (A) (A) (A) (A) (A) (A) (A) (A)
                 (A) (A) (A) (A) (A) (A) (A) (A) (A) (A) (A) (A)
                 (A) (A) (A) (A) (A) (A) (A) (A) (A) (A) (A) (A)
                 (A) (A) (A) (A) (A) (A) (A) (A) (A) (A) (A) (A)
                 (A) (A) (A) (A) (A) (A) (A) (A) (A) (A) (A) (A)
                 (A) (A) (A) (A) (A) (A) (A) (A) (A) (A) (A) (A)
                 (A) (A) (A) (A) (A) (A) (A) (A) (A) (A) (A) (A)
                 (A) (A) (A) (A) (A) (A) (A) (A) (A) (A) (A) (A)
                 (A) (A) (A) (A) (A) (A) (A) (A) (A) (A) (A) (A)
                 (A) (A) (A) (A) (A) (A) (A) (A) (A) (A) (A) (A)
                 (A) (A) (A) (A) (A) (A) (A) (A) (A) (A) (A) (A)
                 (A) (A) (A) (A) (A) (A) (A) (A) (A) (A) (A) (A)
                 (A) (A) (A) (A) (A) (A) (A) (A) (A) (A) (A) (A)
                 (A) (A) (A) (A) (A) (A) (A) (A) (A) (A) (A) (A)
                 (A) (A) (A) (A) (A) (A) (A) (A) (A) (A) (A) (A)
                 (A) (A) (A) (A) (A) (A) (A) (A) (A) (A) (A) (A)
                 (A) (A) (A) (A) (A) (A) (A) (A) (A) (A) (A) (A)
                 (A) (A) (A) (A) (A) (A) (A) (A) (A) (A) (A) (A)
                 (A) (A) (A) (A) (A) (A) (A) (A) (A) (A) (A) (A)
                 (A) (A) (A) (A) (A) (A) (A) (A) (A) (A) (A) (A)
                 (A) (A) (A) (A) (A) (A) (A) (A) (A) (A) (A) (A)
                 (A) (A) (A) (A) (A) (A) (A) (A) (A) (A) (A) (A)
                 (A) (A) (A) (A) (A) (A) (A) (A) (A) (A) (A) (A)
                 (A) (A) (A) (A) (A) (A) (A) (A) (A) (A) (A) (A)
                 (A) (A) (A) (A) (A) (A) (A) (A) (A) (A) (A) (A)
                 (A) (A) (A) (A) (A) (A) (A) (A) (A) (A) (A) (A)
                 (A) (A) (A) (A) (A) (A) (A) (A) (A) (A) (A) (A)
                 (A) (A) (A) (A) (A) (A) (A) (A) (A) (A) (A) (A)
                 (A) (A) (A) (A) (A) (A) (A) (A) (A) (A) (A) (A)
                 (A) (A) (A) (A) (A) (A) (A) (A) (A) (A) (A) (A)
                 (A) (A) (A) (A) (A) (A) (A) (A) (A) (A) (A) (A)
                 (A) (A) (A) (A) (A) (A) (A) (A) (A) (A) (A) (A)
                 (A) (A) (A) (A) (A) (A) (A) (A) (A) (A) (A) (A)
                 (A) (A) (A) (A) (A) (A) (A) (A) (A) (A) (A) (A)
                 (A) (A) (A) (A) (A) (A) (A) (A) (A) (A) (A) (A)
                 (A) (A) (A) (A) (A) (A) (A) (A) (A) (A) (A) (A)
                 (A) (A) (A) (A) (A) (A) (A) (A) (A) (A) (A) (A)
                 (A) (A) (A) (A) (A) (A) (A) (A) (A) (A) (A) (A)
                 (A) (A) (A) (A) (A) (A) (A) (A) (A) (A) (A) (A)
                 (A) (A) (A) (A) (A) (A) (A) (A) (A) (A) (A) (A)
                 (A) (A) (A) (A) (A) (A) (A) (A) (A) (A) (A) (A)
                 (A) (A) (A) (A) (A) (A) (A) (A) (A) (A) (A) (A)
                 (A) (A) (A) (A) (A) (A) (A) (A) (A) (A) (A) (A)
                 (A) (A) (A) (A) (A) (A) (A) (A) (A) (A) (A) (A)
                 (A) (A) (A) (A) (A) (A) (A) (A) (A) (A) (A) (A)
                 (A) (A) (A) (A) (A) (A) (A) (A) (A) (A) (A) (A)
                 (A) (A) (A) (A) (A) (A) (A) (A) (A) (A) (A) (A)
                 (A) (A) (A) (A) (A) (A) (A) (A) (A) (A) (A) (A)
                 (A) (A) (A) (A) (A) (A) (A) (A) (A) (A) (A) (A)
                 (A) (A) (A) (A) (A) (A) (A) (A) (A) (A) (A) (A)
                 (A) (A) (A) (A) (A) (A) (A) (A) (A) (A) (A) (A)
                 (A) (A) (A) (A) (A) (A) (A) (A) (A) (A) (A) (A)
                 (A) (A) (A) (A) (A) (A) (A) (A) (A) (A) (A) (A)
                 (A) (A) (A) (A) (A) (A) (A) (A) (A) (A) (A) (A)
                 (A) (A) (A) (A) (A) (A) (A) (A) (A) (A) (A) (A)
                 (A) (A) (A) (A) (A) (A) (A) (A) (A) (A) (A) (A)
                 (A) (A) (A) (A) (A) (A) (A) (A) (A) (A) (A) (A)
                 (A) (A) (A) (A) (A) (A) (A) (A) (A) (A) (A) (A)
                 (A) (A) (A) (A) (A) (A) (A) (A) (A)
 The electronic state is 1-A.
 Alpha  occ. eigenvalues -- -256.06140 -77.26127 -30.02723 -25.90266 -25.88511
 Alpha  occ. eigenvalues --  -25.88473 -24.66024 -24.64842 -24.63024 -24.62008
 Alpha  occ. eigenvalues --  -24.61987 -24.60968 -14.47716 -10.26799 -10.25238
 Alpha  occ. eigenvalues --  -10.25166 -10.25044 -10.22260 -10.21488 -10.21297
 Alpha  occ. eigenvalues --  -10.21118 -10.21060 -10.20894 -10.20660 -10.20299
 Alpha  occ. eigenvalues --  -10.20014 -10.20002 -10.19411 -10.18932 -10.18883
 Alpha  occ. eigenvalues --  -10.18740 -10.18007 -10.17710  -6.68905  -4.85430
 Alpha  occ. eigenvalues --   -4.85410  -4.85397  -3.41419  -2.21319  -2.17237
 Alpha  occ. eigenvalues --   -2.17175  -1.22116  -1.15593  -1.13932  -1.13020
 Alpha  occ. eigenvalues --   -1.10025  -1.09217  -1.03234  -0.89930  -0.88258
 Alpha  occ. eigenvalues --   -0.87101  -0.80501  -0.78747  -0.77858  -0.76877
 Alpha  occ. eigenvalues --   -0.74210  -0.72403  -0.70648  -0.70429  -0.70219
 Alpha  occ. eigenvalues --   -0.65363  -0.62961  -0.61941  -0.60965  -0.57397
 Alpha  occ. eigenvalues --   -0.55794  -0.55130  -0.54799  -0.54564  -0.53872
 Alpha  occ. eigenvalues --   -0.53477  -0.52636  -0.52170  -0.51074  -0.50319
 Alpha  occ. eigenvalues --   -0.50151  -0.49972  -0.48015  -0.47951  -0.45967
 Alpha  occ. eigenvalues --   -0.45626  -0.44934  -0.44302  -0.44113  -0.43809
 Alpha  occ. eigenvalues --   -0.43384  -0.42958  -0.42364  -0.42076  -0.41815
 Alpha  occ. eigenvalues --   -0.41276  -0.41153  -0.40400  -0.40242  -0.39853
 Alpha  occ. eigenvalues --   -0.39571  -0.39389  -0.38784  -0.38286  -0.37330
 Alpha  occ. eigenvalues --   -0.36984  -0.36769  -0.36387  -0.36096  -0.35923
 Alpha  occ. eigenvalues --   -0.35850  -0.35596  -0.35096  -0.34803  -0.34585
 Alpha  occ. eigenvalues --   -0.34315  -0.31193  -0.31004  -0.30683  -0.28004
 Alpha  occ. eigenvalues --   -0.27734  -0.27378  -0.27012  -0.25080  -0.24972
 Alpha  occ. eigenvalues --   -0.23037  -0.20529  -0.20206
 Alpha virt. eigenvalues --   -0.04033  -0.02590  -0.00470  -0.00284   0.01840
 Alpha virt. eigenvalues --    0.03971   0.04884   0.05683   0.05988   0.06965
 Alpha virt. eigenvalues --    0.07160   0.07603   0.07886   0.07923   0.08834
 Alpha virt. eigenvalues --    0.09730   0.10220   0.10445   0.11035   0.12327
 Alpha virt. eigenvalues --    0.12468   0.13213   0.13776   0.14019   0.14407
 Alpha virt. eigenvalues --    0.14926   0.15137   0.15829   0.16209   0.16489
 Alpha virt. eigenvalues --    0.16949   0.17633   0.17768   0.18328   0.18616
 Alpha virt. eigenvalues --    0.18962   0.19638   0.19972   0.20676   0.21330
 Alpha virt. eigenvalues --    0.22365   0.22697   0.23626   0.24155   0.24918
 Alpha virt. eigenvalues --    0.25933   0.26841   0.27692   0.28086   0.28228
 Alpha virt. eigenvalues --    0.28551   0.29301   0.30302   0.31024   0.31527
 Alpha virt. eigenvalues --    0.32018   0.32731   0.33502   0.33873   0.34611
 Alpha virt. eigenvalues --    0.35297   0.35781   0.36830   0.37231   0.38589
 Alpha virt. eigenvalues --    0.39010   0.40048   0.40240   0.42663   0.42922
 Alpha virt. eigenvalues --    0.43310   0.44400   0.45102   0.46169   0.46898
 Alpha virt. eigenvalues --    0.47177   0.47486   0.47920   0.48538   0.48571
 Alpha virt. eigenvalues --    0.49066   0.49153   0.49787   0.50304   0.50383
 Alpha virt. eigenvalues --    0.50518   0.50955   0.51232   0.51528   0.51644
 Alpha virt. eigenvalues --    0.52204   0.52533   0.53139   0.53839   0.54389
 Alpha virt. eigenvalues --    0.55311   0.55563   0.56301   0.57154   0.57974
 Alpha virt. eigenvalues --    0.58190   0.58962   0.59144   0.60406   0.60665
 Alpha virt. eigenvalues --    0.61683   0.62748   0.64591   0.64980   0.65274
 Alpha virt. eigenvalues --    0.65483   0.65941   0.66131   0.66861   0.67846
 Alpha virt. eigenvalues --    0.68227   0.68471   0.68567   0.68767   0.69292
 Alpha virt. eigenvalues --    0.70064   0.70348   0.70796   0.71084   0.71658
 Alpha virt. eigenvalues --    0.72050   0.72616   0.72899   0.73792   0.73993
 Alpha virt. eigenvalues --    0.74589   0.74980   0.75363   0.75571   0.75928
 Alpha virt. eigenvalues --    0.76522   0.77168   0.77560   0.77858   0.78264
 Alpha virt. eigenvalues --    0.78637   0.79036   0.79714   0.79978   0.80254
 Alpha virt. eigenvalues --    0.80909   0.81604   0.81946   0.82382   0.83121
 Alpha virt. eigenvalues --    0.83478   0.83657   0.85189   0.85552   0.86257
 Alpha virt. eigenvalues --    0.86805   0.87454   0.87914   0.88283   0.89034
 Alpha virt. eigenvalues --    0.89507   0.89876   0.90480   0.91000   0.91673
 Alpha virt. eigenvalues --    0.91807   0.92196   0.92864   0.92971   0.93449
 Alpha virt. eigenvalues --    0.93635   0.94591   0.94819   0.95557   0.95997
 Alpha virt. eigenvalues --    0.96897   0.97087   0.97801   0.98988   0.99832
 Alpha virt. eigenvalues --    1.00429   1.00762   1.00973   1.01987   1.02530
 Alpha virt. eigenvalues --    1.02797   1.03504   1.03932   1.04428   1.04972
 Alpha virt. eigenvalues --    1.05720   1.06098   1.07310   1.07532   1.08537
 Alpha virt. eigenvalues --    1.09349   1.10127   1.10549   1.11516   1.12203
 Alpha virt. eigenvalues --    1.12352   1.12912   1.12932   1.13827   1.14244
 Alpha virt. eigenvalues --    1.14623   1.15748   1.16455   1.16855   1.17210
 Alpha virt. eigenvalues --    1.18546   1.19251   1.19816   1.20976   1.21222
 Alpha virt. eigenvalues --    1.21780   1.22607   1.23342   1.24292   1.24814
 Alpha virt. eigenvalues --    1.25725   1.25868   1.26874   1.27674   1.28218
 Alpha virt. eigenvalues --    1.29644   1.30220   1.30749   1.31715   1.32512
 Alpha virt. eigenvalues --    1.32819   1.33225   1.34650   1.34868   1.35592
 Alpha virt. eigenvalues --    1.35947   1.36119   1.36831   1.37495   1.37973
 Alpha virt. eigenvalues --    1.39055   1.39441   1.39833   1.40503   1.40748
 Alpha virt. eigenvalues --    1.41783   1.42299   1.42397   1.42880   1.43644
 Alpha virt. eigenvalues --    1.43830   1.43888   1.44429   1.45246   1.46164
 Alpha virt. eigenvalues --    1.46696   1.47546   1.47867   1.48603   1.49175
 Alpha virt. eigenvalues --    1.49467   1.50128   1.50855   1.51638   1.52063
 Alpha virt. eigenvalues --    1.52695   1.52998   1.53572   1.54753   1.55293
 Alpha virt. eigenvalues --    1.55583   1.56369   1.56594   1.57686   1.57963
 Alpha virt. eigenvalues --    1.58260   1.58710   1.59094   1.59331   1.60323
 Alpha virt. eigenvalues --    1.60861   1.61097   1.61774   1.62532   1.62915
 Alpha virt. eigenvalues --    1.63729   1.64580   1.65144   1.65996   1.66290
 Alpha virt. eigenvalues --    1.67033   1.68322   1.69059   1.70727   1.71465
 Alpha virt. eigenvalues --    1.71837   1.72208   1.73792   1.74330   1.75824
 Alpha virt. eigenvalues --    1.76016   1.76433   1.77333   1.78361   1.79302
 Alpha virt. eigenvalues --    1.79914   1.80296   1.80952   1.83328   1.84114
 Alpha virt. eigenvalues --    1.84242   1.85144   1.85898   1.86568   1.87279
 Alpha virt. eigenvalues --    1.88034   1.88249   1.88633   1.89454   1.89993
 Alpha virt. eigenvalues --    1.90833   1.91440   1.92028   1.92435   1.92876
 Alpha virt. eigenvalues --    1.93947   1.94813   1.95723   1.97278   1.98384
 Alpha virt. eigenvalues --    1.98741   1.99480   2.00854   2.01281   2.02447
 Alpha virt. eigenvalues --    2.02531   2.05624   2.06333   2.07148   2.08765
 Alpha virt. eigenvalues --    2.10222   2.12051   2.13788   2.14923   2.17483
 Alpha virt. eigenvalues --    2.18126   2.19366   2.19804   2.20350   2.21200
 Alpha virt. eigenvalues --    2.21254   2.21924   2.22486   2.22773   2.23374
 Alpha virt. eigenvalues --    2.24766   2.25505   2.26636   2.27178   2.28373
 Alpha virt. eigenvalues --    2.29951   2.31049   2.31754   2.32814   2.33255
 Alpha virt. eigenvalues --    2.34162   2.35501   2.35639   2.36551   2.37192
 Alpha virt. eigenvalues --    2.37378   2.39103   2.40073   2.40429   2.41297
 Alpha virt. eigenvalues --    2.42878   2.43645   2.44824   2.45398   2.46783
 Alpha virt. eigenvalues --    2.48177   2.48734   2.48999   2.51202   2.53093
 Alpha virt. eigenvalues --    2.54382   2.54603   2.56344   2.58362   2.59865
 Alpha virt. eigenvalues --    2.60558   2.61288   2.62654   2.63871   2.65250
 Alpha virt. eigenvalues --    2.65862   2.67084   2.67731   2.68204   2.69459
 Alpha virt. eigenvalues --    2.69799   2.70359   2.71405   2.73293   2.74706
 Alpha virt. eigenvalues --    2.75702   2.75731   2.76624   2.77376   2.78641
 Alpha virt. eigenvalues --    2.79187   2.80568   2.81659   2.82675   2.82969
 Alpha virt. eigenvalues --    2.83924   2.84492   2.85280   2.86081   2.87088
 Alpha virt. eigenvalues --    2.87665   2.88669   2.89752   2.90448   2.90631
 Alpha virt. eigenvalues --    2.91020   2.91783   2.93050   2.93383   2.94219
 Alpha virt. eigenvalues --    2.95237   2.95761   2.95945   2.96657   2.97045
 Alpha virt. eigenvalues --    2.97945   2.98349   2.99131   3.00166   3.00450
 Alpha virt. eigenvalues --    3.01076   3.02071   3.02562   3.03082   3.03632
 Alpha virt. eigenvalues --    3.03905   3.04083   3.04699   3.05400   3.05605
 Alpha virt. eigenvalues --    3.06646   3.07270   3.07756   3.08421   3.09020
 Alpha virt. eigenvalues --    3.09487   3.09833   3.10544   3.11576   3.11651
 Alpha virt. eigenvalues --    3.12252   3.12660   3.13740   3.14077   3.14464
 Alpha virt. eigenvalues --    3.15415   3.16538   3.17321   3.18978   3.19538
 Alpha virt. eigenvalues --    3.19929   3.20422   3.21575   3.22642   3.23651
 Alpha virt. eigenvalues --    3.24139   3.24799   3.25667   3.26675   3.27539
 Alpha virt. eigenvalues --    3.27741   3.28852   3.29426   3.29975   3.30379
 Alpha virt. eigenvalues --    3.32100   3.32369   3.33808   3.34285   3.35180
 Alpha virt. eigenvalues --    3.35857   3.36265   3.36751   3.37449   3.38732
 Alpha virt. eigenvalues --    3.39615   3.41246   3.41465   3.42215   3.43211
 Alpha virt. eigenvalues --    3.43840   3.44648   3.45218   3.45918   3.46472
 Alpha virt. eigenvalues --    3.47356   3.47531   3.48330   3.49212   3.50440
 Alpha virt. eigenvalues --    3.51926   3.53001   3.53690   3.54281   3.55928
 Alpha virt. eigenvalues --    3.56695   3.59814   3.60114   3.60937   3.62140
 Alpha virt. eigenvalues --    3.63453   3.64681   3.65364   3.65770   3.66077
 Alpha virt. eigenvalues --    3.66692   3.67626   3.68115   3.68566   3.70398
 Alpha virt. eigenvalues --    3.71442   3.72203   3.73675   3.73836   3.75287
 Alpha virt. eigenvalues --    3.75735   3.76624   3.77340   3.78535   3.80279
 Alpha virt. eigenvalues --    3.80647   3.82193   3.83810   3.85405   3.85437
 Alpha virt. eigenvalues --    3.87190   3.88148   3.89137   3.90651   3.93547
 Alpha virt. eigenvalues --    3.96860   3.97074   3.97733   3.98136   3.99901
 Alpha virt. eigenvalues --    4.00421   4.02168   4.02859   4.03680   4.04400
 Alpha virt. eigenvalues --    4.05128   4.05752   4.06820   4.07525   4.09268
 Alpha virt. eigenvalues --    4.10735   4.11662   4.13570   4.14263   4.14518
 Alpha virt. eigenvalues --    4.15777   4.16867   4.18123   4.18990   4.19742
 Alpha virt. eigenvalues --    4.20551   4.20761   4.21455   4.22288   4.22358
 Alpha virt. eigenvalues --    4.23183   4.23954   4.25948   4.26618   4.26908
 Alpha virt. eigenvalues --    4.27330   4.27848   4.28176   4.28990   4.30812
 Alpha virt. eigenvalues --    4.31062   4.31299   4.32219   4.32910   4.33582
 Alpha virt. eigenvalues --    4.34482   4.35020   4.35401   4.35728   4.35899
 Alpha virt. eigenvalues --    4.37316   4.37365   4.38536   4.38859   4.39408
 Alpha virt. eigenvalues --    4.39935   4.40017   4.40536   4.40851   4.41382
 Alpha virt. eigenvalues --    4.41603   4.42109   4.42254   4.42719   4.42873
 Alpha virt. eigenvalues --    4.43831   4.44161   4.44720   4.45128   4.45197
 Alpha virt. eigenvalues --    4.45604   4.45870   4.46492   4.46852   4.47055
 Alpha virt. eigenvalues --    4.47779   4.48020   4.48696   4.49756   4.50079
 Alpha virt. eigenvalues --    4.50331   4.50848   4.51179   4.51440   4.51920
 Alpha virt. eigenvalues --    4.52171   4.52301   4.53081   4.54233   4.54496
 Alpha virt. eigenvalues --    4.55740   4.56293   4.57072   4.57404   4.57614
 Alpha virt. eigenvalues --    4.58244   4.59878   4.60029   4.60092   4.60850
 Alpha virt. eigenvalues --    4.61168   4.61926   4.62790   4.63926   4.64663
 Alpha virt. eigenvalues --    4.64861   4.65103   4.65509   4.66823   4.67117
 Alpha virt. eigenvalues --    4.67186   4.67896   4.69315   4.69765   4.69886
 Alpha virt. eigenvalues --    4.71822   4.73174   4.74244   4.74559   4.74951
 Alpha virt. eigenvalues --    4.76601   4.77473   4.78685   4.79506   4.80442
 Alpha virt. eigenvalues --    4.80712   4.80853   4.82044   4.82881   4.83085
 Alpha virt. eigenvalues --    4.83702   4.84087   4.85411   4.86848   4.88027
 Alpha virt. eigenvalues --    4.88547   4.89946   4.90312   4.92467   4.93271
 Alpha virt. eigenvalues --    4.93690   4.94645   4.95401   4.98166   4.98727
 Alpha virt. eigenvalues --    5.00204   5.00929   5.01243   5.01998   5.03914
 Alpha virt. eigenvalues --    5.04498   5.05239   5.06718   5.07172   5.07232
 Alpha virt. eigenvalues --    5.08226   5.08557   5.12173   5.13069   5.16427
 Alpha virt. eigenvalues --    5.16860   5.17402   5.18888   5.19774   5.22339
 Alpha virt. eigenvalues --    5.22927   5.24326   5.25346   5.26589   5.28278
 Alpha virt. eigenvalues --    5.29454   5.30642   5.31861   5.33504   5.33893
 Alpha virt. eigenvalues --    5.34844   5.36656   5.37955   5.40466   5.42711
 Alpha virt. eigenvalues --    5.44076   5.45177   5.46801   5.47599   5.49243
 Alpha virt. eigenvalues --    5.50565   5.51606   5.53167   5.54284   5.56091
 Alpha virt. eigenvalues --    5.58669   5.59434   5.61145   5.61815   5.65929
 Alpha virt. eigenvalues --    5.67211   5.68578   5.72486   5.74145   5.76737
 Alpha virt. eigenvalues --    5.77800   5.78510   5.85126   5.91673   5.92256
 Alpha virt. eigenvalues --    5.93538   5.97834   6.04154   6.17314   6.23724
 Alpha virt. eigenvalues --    6.31255   6.41741   6.63373   6.64408   6.64760
 Alpha virt. eigenvalues --    6.64936   6.65712   6.66002   6.66473   6.66747
 Alpha virt. eigenvalues --    6.67372   6.67715   6.67812   6.68106   6.68166
 Alpha virt. eigenvalues --    6.69356   6.69565   6.69726   6.70492   6.70529
 Alpha virt. eigenvalues --    6.70771   6.71304   6.71614   6.71630   6.72169
 Alpha virt. eigenvalues --    6.72394   6.76614   6.82101   6.85166   6.86485
 Alpha virt. eigenvalues --    6.88539   6.89874   6.90547   7.10257   7.11478
 Alpha virt. eigenvalues --    7.12282   7.13459   7.15701   7.19997   7.20345
 Alpha virt. eigenvalues --    7.21489   7.23557   7.24309   7.25181   7.27474
 Alpha virt. eigenvalues --    7.29507   7.30687   8.16864   9.69409   9.73327
 Alpha virt. eigenvalues --    9.75247  10.07498  10.11881  10.18322  10.54471
 Alpha virt. eigenvalues --   10.68883  10.77771  11.07872  11.12808  11.17217
 Alpha virt. eigenvalues --   11.21101  11.35957  11.56617  11.60477  11.66580
 Alpha virt. eigenvalues --   11.73654  11.80794  12.03418  12.07090  12.19895
 Alpha virt. eigenvalues --   12.42526  12.67350  12.75104  12.77576  12.85788
 Alpha virt. eigenvalues --   21.29480  32.05137
  Beta  occ. eigenvalues -- -256.06140 -77.26127 -30.02723 -25.90266 -25.88511
  Beta  occ. eigenvalues --  -25.88473 -24.66024 -24.64842 -24.63024 -24.62008
  Beta  occ. eigenvalues --  -24.61987 -24.60968 -14.47716 -10.26799 -10.25238
  Beta  occ. eigenvalues --  -10.25166 -10.25044 -10.22260 -10.21488 -10.21297
  Beta  occ. eigenvalues --  -10.21118 -10.21060 -10.20894 -10.20660 -10.20299
  Beta  occ. eigenvalues --  -10.20014 -10.20002 -10.19411 -10.18932 -10.18883
  Beta  occ. eigenvalues --  -10.18740 -10.18007 -10.17710  -6.68905  -4.85430
  Beta  occ. eigenvalues --   -4.85410  -4.85397  -3.41419  -2.21319  -2.17237
  Beta  occ. eigenvalues --   -2.17175  -1.22116  -1.15593  -1.13932  -1.13020
  Beta  occ. eigenvalues --   -1.10025  -1.09217  -1.03234  -0.89930  -0.88258
  Beta  occ. eigenvalues --   -0.87101  -0.80501  -0.78747  -0.77858  -0.76877
  Beta  occ. eigenvalues --   -0.74210  -0.72403  -0.70648  -0.70429  -0.70219
  Beta  occ. eigenvalues --   -0.65363  -0.62961  -0.61941  -0.60965  -0.57397
  Beta  occ. eigenvalues --   -0.55794  -0.55130  -0.54799  -0.54564  -0.53872
  Beta  occ. eigenvalues --   -0.53477  -0.52636  -0.52170  -0.51074  -0.50319
  Beta  occ. eigenvalues --   -0.50151  -0.49972  -0.48015  -0.47951  -0.45967
  Beta  occ. eigenvalues --   -0.45626  -0.44934  -0.44302  -0.44113  -0.43809
  Beta  occ. eigenvalues --   -0.43384  -0.42958  -0.42364  -0.42076  -0.41815
  Beta  occ. eigenvalues --   -0.41276  -0.41153  -0.40400  -0.40242  -0.39853
  Beta  occ. eigenvalues --   -0.39571  -0.39389  -0.38784  -0.38286  -0.37330
  Beta  occ. eigenvalues --   -0.36984  -0.36769  -0.36387  -0.36096  -0.35923
  Beta  occ. eigenvalues --   -0.35850  -0.35596  -0.35096  -0.34803  -0.34585
  Beta  occ. eigenvalues --   -0.34315  -0.31193  -0.31004  -0.30683  -0.28004
  Beta  occ. eigenvalues --   -0.27734  -0.27378  -0.27012  -0.25080  -0.24972
  Beta  occ. eigenvalues --   -0.23037  -0.20529  -0.20206
  Beta virt. eigenvalues --   -0.04033  -0.02590  -0.00470  -0.00284   0.01840
  Beta virt. eigenvalues --    0.03971   0.04884   0.05683   0.05988   0.06965
  Beta virt. eigenvalues --    0.07160   0.07603   0.07886   0.07923   0.08834
  Beta virt. eigenvalues --    0.09730   0.10220   0.10445   0.11035   0.12327
  Beta virt. eigenvalues --    0.12468   0.13213   0.13776   0.14019   0.14407
  Beta virt. eigenvalues --    0.14926   0.15137   0.15829   0.16209   0.16489
  Beta virt. eigenvalues --    0.16949   0.17633   0.17768   0.18328   0.18616
  Beta virt. eigenvalues --    0.18962   0.19638   0.19972   0.20676   0.21330
  Beta virt. eigenvalues --    0.22365   0.22697   0.23626   0.24155   0.24918
  Beta virt. eigenvalues --    0.25933   0.26841   0.27692   0.28086   0.28228
  Beta virt. eigenvalues --    0.28551   0.29301   0.30302   0.31024   0.31527
  Beta virt. eigenvalues --    0.32018   0.32731   0.33502   0.33873   0.34611
  Beta virt. eigenvalues --    0.35297   0.35781   0.36830   0.37231   0.38589
  Beta virt. eigenvalues --    0.39010   0.40048   0.40240   0.42663   0.42922
  Beta virt. eigenvalues --    0.43310   0.44400   0.45102   0.46169   0.46898
  Beta virt. eigenvalues --    0.47177   0.47486   0.47920   0.48538   0.48571
  Beta virt. eigenvalues --    0.49066   0.49153   0.49787   0.50304   0.50383
  Beta virt. eigenvalues --    0.50518   0.50955   0.51232   0.51528   0.51644
  Beta virt. eigenvalues --    0.52204   0.52533   0.53139   0.53839   0.54389
  Beta virt. eigenvalues --    0.55311   0.55563   0.56301   0.57154   0.57974
  Beta virt. eigenvalues --    0.58190   0.58962   0.59144   0.60406   0.60665
  Beta virt. eigenvalues --    0.61683   0.62748   0.64591   0.64980   0.65274
  Beta virt. eigenvalues --    0.65483   0.65941   0.66131   0.66861   0.67846
  Beta virt. eigenvalues --    0.68227   0.68471   0.68567   0.68767   0.69292
  Beta virt. eigenvalues --    0.70064   0.70348   0.70796   0.71084   0.71658
  Beta virt. eigenvalues --    0.72050   0.72616   0.72899   0.73792   0.73993
  Beta virt. eigenvalues --    0.74589   0.74980   0.75363   0.75571   0.75928
  Beta virt. eigenvalues --    0.76522   0.77168   0.77560   0.77858   0.78264
  Beta virt. eigenvalues --    0.78637   0.79036   0.79714   0.79978   0.80254
  Beta virt. eigenvalues --    0.80909   0.81604   0.81946   0.82382   0.83121
  Beta virt. eigenvalues --    0.83478   0.83657   0.85189   0.85552   0.86257
  Beta virt. eigenvalues --    0.86805   0.87454   0.87914   0.88283   0.89034
  Beta virt. eigenvalues --    0.89507   0.89876   0.90480   0.91000   0.91673
  Beta virt. eigenvalues --    0.91807   0.92196   0.92864   0.92971   0.93449
  Beta virt. eigenvalues --    0.93635   0.94591   0.94819   0.95557   0.95997
  Beta virt. eigenvalues --    0.96897   0.97087   0.97801   0.98988   0.99832
  Beta virt. eigenvalues --    1.00429   1.00762   1.00973   1.01987   1.02530
  Beta virt. eigenvalues --    1.02797   1.03504   1.03932   1.04428   1.04972
  Beta virt. eigenvalues --    1.05720   1.06098   1.07310   1.07532   1.08537
  Beta virt. eigenvalues --    1.09349   1.10127   1.10549   1.11516   1.12203
  Beta virt. eigenvalues --    1.12352   1.12912   1.12932   1.13827   1.14244
  Beta virt. eigenvalues --    1.14623   1.15748   1.16455   1.16855   1.17210
  Beta virt. eigenvalues --    1.18546   1.19251   1.19816   1.20976   1.21222
  Beta virt. eigenvalues --    1.21780   1.22607   1.23342   1.24292   1.24814
  Beta virt. eigenvalues --    1.25725   1.25868   1.26874   1.27674   1.28218
  Beta virt. eigenvalues --    1.29644   1.30220   1.30749   1.31715   1.32512
  Beta virt. eigenvalues --    1.32819   1.33225   1.34650   1.34868   1.35592
  Beta virt. eigenvalues --    1.35947   1.36119   1.36831   1.37495   1.37973
  Beta virt. eigenvalues --    1.39055   1.39441   1.39833   1.40503   1.40748
  Beta virt. eigenvalues --    1.41783   1.42299   1.42397   1.42880   1.43644
  Beta virt. eigenvalues --    1.43830   1.43888   1.44429   1.45246   1.46164
  Beta virt. eigenvalues --    1.46696   1.47546   1.47867   1.48603   1.49175
  Beta virt. eigenvalues --    1.49467   1.50128   1.50855   1.51638   1.52063
  Beta virt. eigenvalues --    1.52695   1.52998   1.53572   1.54753   1.55293
  Beta virt. eigenvalues --    1.55583   1.56369   1.56594   1.57686   1.57963
  Beta virt. eigenvalues --    1.58260   1.58710   1.59094   1.59331   1.60323
  Beta virt. eigenvalues --    1.60861   1.61097   1.61774   1.62532   1.62915
  Beta virt. eigenvalues --    1.63729   1.64580   1.65144   1.65996   1.66290
  Beta virt. eigenvalues --    1.67033   1.68322   1.69059   1.70727   1.71465
  Beta virt. eigenvalues --    1.71837   1.72208   1.73792   1.74330   1.75824
  Beta virt. eigenvalues --    1.76016   1.76433   1.77333   1.78361   1.79302
  Beta virt. eigenvalues --    1.79914   1.80296   1.80952   1.83328   1.84114
  Beta virt. eigenvalues --    1.84242   1.85144   1.85898   1.86568   1.87279
  Beta virt. eigenvalues --    1.88034   1.88249   1.88633   1.89454   1.89993
  Beta virt. eigenvalues --    1.90833   1.91440   1.92028   1.92435   1.92876
  Beta virt. eigenvalues --    1.93947   1.94813   1.95723   1.97278   1.98384
  Beta virt. eigenvalues --    1.98741   1.99480   2.00854   2.01281   2.02447
  Beta virt. eigenvalues --    2.02531   2.05624   2.06333   2.07148   2.08765
  Beta virt. eigenvalues --    2.10222   2.12051   2.13788   2.14923   2.17483
  Beta virt. eigenvalues --    2.18126   2.19366   2.19804   2.20350   2.21200
  Beta virt. eigenvalues --    2.21254   2.21924   2.22486   2.22773   2.23374
  Beta virt. eigenvalues --    2.24766   2.25505   2.26636   2.27178   2.28373
  Beta virt. eigenvalues --    2.29951   2.31049   2.31754   2.32814   2.33255
  Beta virt. eigenvalues --    2.34162   2.35501   2.35639   2.36551   2.37192
  Beta virt. eigenvalues --    2.37378   2.39103   2.40073   2.40429   2.41297
  Beta virt. eigenvalues --    2.42878   2.43645   2.44824   2.45398   2.46783
  Beta virt. eigenvalues --    2.48177   2.48734   2.48999   2.51202   2.53093
  Beta virt. eigenvalues --    2.54382   2.54603   2.56344   2.58362   2.59865
  Beta virt. eigenvalues --    2.60558   2.61288   2.62654   2.63871   2.65250
  Beta virt. eigenvalues --    2.65862   2.67084   2.67731   2.68204   2.69459
  Beta virt. eigenvalues --    2.69799   2.70359   2.71405   2.73293   2.74706
  Beta virt. eigenvalues --    2.75702   2.75731   2.76624   2.77376   2.78641
  Beta virt. eigenvalues --    2.79187   2.80568   2.81659   2.82675   2.82969
  Beta virt. eigenvalues --    2.83924   2.84492   2.85280   2.86081   2.87088
  Beta virt. eigenvalues --    2.87665   2.88669   2.89752   2.90448   2.90631
  Beta virt. eigenvalues --    2.91020   2.91783   2.93050   2.93383   2.94219
  Beta virt. eigenvalues --    2.95237   2.95761   2.95945   2.96657   2.97045
  Beta virt. eigenvalues --    2.97945   2.98349   2.99131   3.00166   3.00450
  Beta virt. eigenvalues --    3.01076   3.02071   3.02562   3.03082   3.03632
  Beta virt. eigenvalues --    3.03905   3.04083   3.04699   3.05400   3.05605
  Beta virt. eigenvalues --    3.06646   3.07270   3.07756   3.08421   3.09020
  Beta virt. eigenvalues --    3.09487   3.09833   3.10544   3.11576   3.11651
  Beta virt. eigenvalues --    3.12252   3.12660   3.13740   3.14077   3.14464
  Beta virt. eigenvalues --    3.15415   3.16538   3.17321   3.18978   3.19538
  Beta virt. eigenvalues --    3.19929   3.20422   3.21575   3.22642   3.23651
  Beta virt. eigenvalues --    3.24139   3.24799   3.25667   3.26675   3.27539
  Beta virt. eigenvalues --    3.27741   3.28852   3.29426   3.29975   3.30379
  Beta virt. eigenvalues --    3.32100   3.32369   3.33808   3.34285   3.35180
  Beta virt. eigenvalues --    3.35857   3.36265   3.36751   3.37449   3.38732
  Beta virt. eigenvalues --    3.39615   3.41246   3.41465   3.42215   3.43211
  Beta virt. eigenvalues --    3.43840   3.44648   3.45218   3.45918   3.46472
  Beta virt. eigenvalues --    3.47356   3.47531   3.48330   3.49212   3.50440
  Beta virt. eigenvalues --    3.51926   3.53001   3.53690   3.54281   3.55928
  Beta virt. eigenvalues --    3.56695   3.59814   3.60114   3.60937   3.62140
  Beta virt. eigenvalues --    3.63453   3.64681   3.65364   3.65770   3.66077
  Beta virt. eigenvalues --    3.66692   3.67626   3.68115   3.68566   3.70398
  Beta virt. eigenvalues --    3.71442   3.72203   3.73675   3.73836   3.75287
  Beta virt. eigenvalues --    3.75735   3.76624   3.77340   3.78535   3.80279
  Beta virt. eigenvalues --    3.80647   3.82193   3.83810   3.85405   3.85437
  Beta virt. eigenvalues --    3.87190   3.88148   3.89137   3.90651   3.93547
  Beta virt. eigenvalues --    3.96860   3.97074   3.97733   3.98136   3.99901
  Beta virt. eigenvalues --    4.00421   4.02168   4.02859   4.03680   4.04400
  Beta virt. eigenvalues --    4.05128   4.05752   4.06820   4.07525   4.09268
  Beta virt. eigenvalues --    4.10735   4.11662   4.13570   4.14263   4.14518
  Beta virt. eigenvalues --    4.15777   4.16867   4.18123   4.18990   4.19742
  Beta virt. eigenvalues --    4.20551   4.20761   4.21455   4.22288   4.22358
  Beta virt. eigenvalues --    4.23183   4.23954   4.25948   4.26618   4.26908
  Beta virt. eigenvalues --    4.27330   4.27848   4.28176   4.28990   4.30812
  Beta virt. eigenvalues --    4.31062   4.31299   4.32219   4.32910   4.33582
  Beta virt. eigenvalues --    4.34482   4.35020   4.35401   4.35728   4.35899
  Beta virt. eigenvalues --    4.37316   4.37365   4.38536   4.38859   4.39408
  Beta virt. eigenvalues --    4.39935   4.40017   4.40536   4.40851   4.41382
  Beta virt. eigenvalues --    4.41603   4.42109   4.42254   4.42719   4.42873
  Beta virt. eigenvalues --    4.43831   4.44161   4.44720   4.45128   4.45197
  Beta virt. eigenvalues --    4.45604   4.45870   4.46492   4.46852   4.47055
  Beta virt. eigenvalues --    4.47779   4.48020   4.48696   4.49756   4.50079
  Beta virt. eigenvalues --    4.50331   4.50848   4.51179   4.51440   4.51920
  Beta virt. eigenvalues --    4.52171   4.52301   4.53081   4.54233   4.54496
  Beta virt. eigenvalues --    4.55740   4.56293   4.57072   4.57404   4.57614
  Beta virt. eigenvalues --    4.58244   4.59878   4.60029   4.60092   4.60850
  Beta virt. eigenvalues --    4.61168   4.61926   4.62790   4.63926   4.64663
  Beta virt. eigenvalues --    4.64861   4.65103   4.65509   4.66823   4.67117
  Beta virt. eigenvalues --    4.67186   4.67896   4.69315   4.69765   4.69886
  Beta virt. eigenvalues --    4.71822   4.73174   4.74244   4.74559   4.74951
  Beta virt. eigenvalues --    4.76601   4.77473   4.78685   4.79506   4.80442
  Beta virt. eigenvalues --    4.80712   4.80853   4.82044   4.82881   4.83085
  Beta virt. eigenvalues --    4.83702   4.84087   4.85411   4.86848   4.88027
  Beta virt. eigenvalues --    4.88547   4.89946   4.90312   4.92467   4.93271
  Beta virt. eigenvalues --    4.93690   4.94645   4.95401   4.98166   4.98727
  Beta virt. eigenvalues --    5.00204   5.00929   5.01243   5.01998   5.03914
  Beta virt. eigenvalues --    5.04498   5.05239   5.06718   5.07172   5.07232
  Beta virt. eigenvalues --    5.08226   5.08557   5.12173   5.13069   5.16427
  Beta virt. eigenvalues --    5.16860   5.17402   5.18888   5.19774   5.22339
  Beta virt. eigenvalues --    5.22927   5.24326   5.25346   5.26589   5.28278
  Beta virt. eigenvalues --    5.29454   5.30642   5.31861   5.33504   5.33893
  Beta virt. eigenvalues --    5.34844   5.36656   5.37955   5.40466   5.42711
  Beta virt. eigenvalues --    5.44076   5.45177   5.46801   5.47599   5.49243
  Beta virt. eigenvalues --    5.50565   5.51606   5.53167   5.54284   5.56091
  Beta virt. eigenvalues --    5.58669   5.59434   5.61145   5.61815   5.65929
  Beta virt. eigenvalues --    5.67211   5.68578   5.72486   5.74145   5.76737
  Beta virt. eigenvalues --    5.77800   5.78510   5.85126   5.91673   5.92256
  Beta virt. eigenvalues --    5.93538   5.97834   6.04154   6.17314   6.23724
  Beta virt. eigenvalues --    6.31255   6.41741   6.63373   6.64408   6.64760
  Beta virt. eigenvalues --    6.64936   6.65712   6.66002   6.66473   6.66747
  Beta virt. eigenvalues --    6.67372   6.67715   6.67812   6.68106   6.68166
  Beta virt. eigenvalues --    6.69356   6.69565   6.69726   6.70492   6.70529
  Beta virt. eigenvalues --    6.70771   6.71304   6.71614   6.71630   6.72169
  Beta virt. eigenvalues --    6.72394   6.76614   6.82101   6.85166   6.86485
  Beta virt. eigenvalues --    6.88539   6.89874   6.90547   7.10257   7.11478
  Beta virt. eigenvalues --    7.12282   7.13459   7.15701   7.19997   7.20345
  Beta virt. eigenvalues --    7.21489   7.23557   7.24309   7.25181   7.27474
  Beta virt. eigenvalues --    7.29507   7.30687   8.16864   9.69409   9.73327
  Beta virt. eigenvalues --    9.75247  10.07498  10.11881  10.18322  10.54471
  Beta virt. eigenvalues --   10.68883  10.77771  11.07872  11.12808  11.17217
  Beta virt. eigenvalues --   11.21101  11.35957  11.56617  11.60477  11.66580
  Beta virt. eigenvalues --   11.73654  11.80794  12.03418  12.07090  12.19895
  Beta virt. eigenvalues --   12.42526  12.67350  12.75104  12.77576  12.85788
  Beta virt. eigenvalues --   21.29480  32.05137
          Condensed to atoms (all electrons):
          Atomic-Atomic Spin Densities.
 Mulliken charges and spin densities:
               1          2
     1  C   -0.144538  -0.000000
     2  H    0.108448   0.000000
     3  C   -0.301306  -0.000000
     4  H    0.102369  -0.000000
     5  C    0.148023  -0.000000
     6  C   -0.184725   0.000000
     7  H    0.115966   0.000000
     8  C   -0.289143  -0.000000
     9  H    0.162199  -0.000000
    10  C   -0.191909   0.000000
    11  H    0.112517   0.000000
    12  C   -0.174939  -0.000000
    13  H    0.105626  -0.000000
    14  C   -0.199314   0.000000
    15  H    0.134018  -0.000000
    16  C   -0.195423  -0.000000
    17  H    0.116250   0.000000
    18  C   -0.162075  -0.000000
    19  H    0.150813   0.000000
    20  Fe   0.738303  -0.000000
    21  C   -0.355309   0.000000
    22  H    0.127718  -0.000000
    23  H    0.216851  -0.000000
    24  N    0.063049  -0.000000
    25  C   -0.324034   0.000000
    26  H    0.149947  -0.000000
    27  H    0.208055  -0.000000
    28  C   -0.340035   0.000000
    29  H    0.165786  -0.000000
    30  H    0.152787   0.000000
    31  H    0.179283  -0.000000
    32  C   -0.370856  -0.000000
    33  H    0.149675   0.000000
    34  H    0.162752   0.000000
    35  H    0.217903   0.000000
    36  P    0.808948   0.000000
    37  F   -0.310093  -0.000000
    38  F   -0.246670   0.000000
    39  F   -0.242286  -0.000000
    40  F   -0.193472   0.000000
    41  F   -0.252856   0.000000
    42  F   -0.277674  -0.000000
    43  C    0.272641   0.000000
    44  C   -0.186848  -0.000000
    45  C   -0.201518  -0.000000
    46  C   -0.105336   0.000000
    47  H    0.151150  -0.000000
    48  C   -0.089013   0.000000
    49  H    0.098529   0.000000
    50  C   -0.114470  -0.000000
    51  H    0.118181   0.000000
    52  H    0.104962  -0.000000
    53  H    0.111093  -0.000000
 Sum of Mulliken charges =  -0.00000   0.00000
 Mulliken charges and spin densities with hydrogens summed into heavy atoms:
               1          2
     1  C   -0.036090   0.000000
     3  C   -0.198938  -0.000000
     5  C    0.148023  -0.000000
     6  C   -0.068760   0.000000
     8  C   -0.126943  -0.000000
    10  C   -0.079392   0.000000
    12  C   -0.069313  -0.000000
    14  C   -0.065296   0.000000
    16  C   -0.079172  -0.000000
    18  C   -0.011262  -0.000000
    20  Fe   0.738303  -0.000000
    21  C   -0.010740   0.000000
    24  N    0.063049  -0.000000
    25  C    0.033968   0.000000
    28  C    0.157821   0.000000
    32  C    0.159474  -0.000000
    36  P    0.808948   0.000000
    37  F   -0.310093  -0.000000
    38  F   -0.246670   0.000000
    39  F   -0.242286  -0.000000
    40  F   -0.193472   0.000000
    41  F   -0.252856   0.000000
    42  F   -0.277674  -0.000000
    43  C    0.272641   0.000000
    44  C   -0.035698  -0.000000
    45  C   -0.102989  -0.000000
    46  C    0.012845   0.000000
    48  C    0.015949   0.000000
    50  C   -0.003377  -0.000000
 APT charges:
               1
     1  C   -0.388944
     2  H    0.896305
     3  C   -0.544372
     4  H    0.625719
     5  C   -0.561443
     6  C   -0.558804
     7  H    0.688175
     8  C   -0.656808
     9  H    0.187497
    10  C   -0.264547
    11  H    0.940936
    12  C   -0.429695
    13  H    0.615757
    14  C   -0.588212
    15  H    0.099562
    16  C   -0.334749
    17  H    0.657793
    18  C   -0.555399
    19  H    0.112528
    20  Fe   0.138909
    21  C   -0.574223
    22  H    0.473763
    23  H    0.169787
    24  N   -0.220966
    25  C   -0.532116
    26  H    0.307770
    27  H    0.141421
    28  C   -1.129003
[...]
     9   Atom        0.000000     -0.000000      0.000000
    10   Atom       -0.000000     -0.000000      0.000000
    11   Atom       -0.000000     -0.000000      0.000000
    12   Atom       -0.000000     -0.000000      0.000000
    13   Atom       -0.000000      0.000000     -0.000000
    14   Atom       -0.000000      0.000000     -0.000000
    15   Atom        0.000000      0.000000      0.000000
    16   Atom       -0.000000     -0.000000     -0.000000
    17   Atom        0.000000      0.000000      0.000000
    18   Atom        0.000000     -0.000000      0.000000
    19   Atom        0.000000     -0.000000      0.000000
    20   Atom        0.000000     -0.000000      0.000000
    21   Atom        0.000000      0.000000      0.000000
    22   Atom       -0.000000      0.000000      0.000000
    23   Atom        0.000000      0.000000      0.000000
    24   Atom        0.000000      0.000000     -0.000000
    25   Atom       -0.000000      0.000000     -0.000000
    26   Atom        0.000000     -0.000000      0.000000
    27   Atom       -0.000000      0.000000     -0.000000
    28   Atom        0.000000     -0.000000     -0.000000
    29   Atom        0.000000     -0.000000     -0.000000
    30   Atom       -0.000000     -0.000000     -0.000000
    31   Atom       -0.000000      0.000000     -0.000000
    32   Atom        0.000000     -0.000000      0.000000
    33   Atom       -0.000000     -0.000000      0.000000
    34   Atom       -0.000000     -0.000000      0.000000
    35   Atom        0.000000     -0.000000      0.000000
    36   Atom        0.000000     -0.000000     -0.000000
    37   Atom        0.000000      0.000000      0.000000
    38   Atom       -0.000000     -0.000000     -0.000000
    39   Atom       -0.000000     -0.000000     -0.000000
    40   Atom       -0.000000     -0.000000      0.000000
    41   Atom       -0.000000      0.000000      0.000000
    42   Atom       -0.000000      0.000000      0.000000
    43   Atom       -0.000000      0.000000      0.000000
    44   Atom       -0.000000      0.000000      0.000000
    45   Atom        0.000000     -0.000000      0.000000
    46   Atom       -0.000000      0.000000      0.000000
    47   Atom        0.000000      0.000000      0.000000
    48   Atom        0.000000     -0.000000      0.000000
    49   Atom       -0.000000     -0.000000      0.000000
    50   Atom       -0.000000      0.000000      0.000000
    51   Atom       -0.000000     -0.000000      0.000000
    52   Atom        0.000000      0.000000      0.000000
    53   Atom        0.000000      0.000000      0.000000
 --------------------------------------------------------


 ---------------------------------------------------------------------------------
              Anisotropic Spin Dipole Couplings in Principal Axis System
 ---------------------------------------------------------------------------------

       Atom             a.u.   MegaHertz   Gauss  10(-4) cm-1        Axes

              Baa    -0.0000    -0.000    -0.000    -0.000  0.8469  0.3364 -0.4119
     1 C(13)  Bbb     0.0000     0.000     0.000     0.000  0.0973  0.6634  0.7419
              Bcc     0.0000     0.000     0.000     0.000 -0.5228  0.6684 -0.5290
 
              Baa    -0.0000    -0.000    -0.000    -0.000  0.6756  0.7007 -0.2294
     2 H(1)   Bbb    -0.0000    -0.000    -0.000    -0.000  0.2805  0.0435  0.9589
              Bcc     0.0000     0.000     0.000     0.000 -0.6818  0.7121  0.1672
 
              Baa    -0.0000    -0.000    -0.000    -0.000  0.8980 -0.1486 -0.4142
     3 C(13)  Bbb     0.0000     0.000     0.000     0.000  0.4070  0.6384  0.6533
              Bcc     0.0000     0.000     0.000     0.000 -0.1674  0.7552 -0.6338
 
              Baa    -0.0000    -0.000    -0.000    -0.000 -0.5427  0.0038  0.8399
     4 H(1)   Bbb     0.0000     0.000     0.000     0.000  0.6629  0.6161  0.4255
              Bcc     0.0000     0.000     0.000     0.000 -0.5159  0.7877 -0.3368
 
              Baa    -0.0000    -0.000    -0.000    -0.000  0.6949  0.7024  0.1540
     5 C(13)  Bbb    -0.0000    -0.000    -0.000    -0.000  0.7172 -0.6614 -0.2196
              Bcc     0.0000     0.000     0.000     0.000  0.0523 -0.2631  0.9634
 
              Baa    -0.0000    -0.000    -0.000    -0.000  0.2246  0.0123  0.9744
     6 C(13)  Bbb    -0.0000    -0.000    -0.000    -0.000  0.5644  0.8135 -0.1403
              Bcc     0.0000     0.000     0.000     0.000  0.7944 -0.5815 -0.1758
 
              Baa    -0.0000    -0.000    -0.000    -0.000  0.9104 -0.1069 -0.3997
     7 H(1)   Bbb    -0.0000    -0.000    -0.000    -0.000  0.2759  0.8768  0.3939
              Bcc     0.0000     0.000     0.000     0.000  0.3083 -0.4689  0.8277
 
              Baa    -0.0000    -0.000    -0.000    -0.000 -0.2976  0.8061 -0.5115
     8 C(13)  Bbb     0.0000     0.000     0.000     0.000  0.8181  0.4914  0.2986
              Bcc     0.0000     0.000     0.000     0.000 -0.4921  0.3296  0.8058
 
              Baa    -0.0000    -0.000    -0.000    -0.000  0.4513 -0.4790  0.7529
     9 H(1)   Bbb     0.0000     0.000     0.000     0.000  0.8414 -0.0527 -0.5379
              Bcc     0.0000     0.000     0.000     0.000  0.2974  0.8762  0.3792
 
              Baa    -0.0000    -0.000    -0.000    -0.000  0.6637  0.0288  0.7475
    10 C(13)  Bbb    -0.0000    -0.000    -0.000    -0.000  0.1730  0.9662 -0.1909
              Bcc     0.0000     0.000     0.000     0.000  0.7277 -0.2561 -0.6363
 
              Baa    -0.0000    -0.000    -0.000    -0.000  0.0835 -0.1241  0.9888
    11 H(1)   Bbb    -0.0000    -0.000    -0.000    -0.000  0.7928  0.6094  0.0095
              Bcc     0.0000     0.000     0.000     0.000 -0.6038  0.7831  0.1492
 
              Baa    -0.0000    -0.000    -0.000    -0.000  0.0467  0.8573 -0.5127
    12 C(13)  Bbb     0.0000     0.000     0.000     0.000  0.5336  0.4125  0.7383
              Bcc     0.0000     0.000     0.000     0.000  0.8444 -0.3081 -0.4382
 
              Baa    -0.0000    -0.000    -0.000    -0.000 -0.4197 -0.0188  0.9075
    13 H(1)   Bbb    -0.0000    -0.000    -0.000    -0.000  0.5891  0.7549  0.2881
              Bcc     0.0000     0.000     0.000     0.000  0.6905 -0.6555  0.3058
 
              Baa    -0.0000    -0.000    -0.000    -0.000 -0.2947  0.0467  0.9545
    14 C(13)  Bbb    -0.0000    -0.000    -0.000    -0.000  0.9554  0.0351  0.2932
              Bcc     0.0000     0.000     0.000     0.000 -0.0198  0.9983 -0.0550
 
              Baa    -0.0000    -0.000    -0.000    -0.000  0.7381 -0.0802 -0.6699
    15 H(1)   Bbb     0.0000     0.000     0.000     0.000 -0.3151  0.8370 -0.4474
              Bcc     0.0000     0.000     0.000     0.000  0.5966  0.5413  0.5925
 
              Baa    -0.0000    -0.000    -0.000    -0.000  0.9986  0.0169  0.0493
    16 C(13)  Bbb     0.0000     0.000     0.000     0.000 -0.0286  0.9686  0.2471
              Bcc     0.0000     0.000     0.000     0.000 -0.0436 -0.2482  0.9677
 
              Baa    -0.0000    -0.000    -0.000    -0.000 -0.1912 -0.2425  0.9511
    17 H(1)   Bbb     0.0000     0.000     0.000     0.000  0.9196 -0.3831  0.0873
              Bcc     0.0000     0.000     0.000     0.000  0.3432  0.8913  0.2962
 
              Baa    -0.0000    -0.000    -0.000    -0.000 -0.5368  0.7386 -0.4078
    18 C(13)  Bbb     0.0000     0.000     0.000     0.000  0.7244  0.6513  0.2262
              Bcc     0.0000     0.000     0.000     0.000 -0.4326  0.1740  0.8846
 
              Baa    -0.0000    -0.000    -0.000    -0.000 -0.5073  0.6459 -0.5706
    19 H(1)   Bbb     0.0000     0.000     0.000     0.000  0.3610  0.7604  0.5398
              Bcc     0.0000     0.000     0.000     0.000  0.7825  0.0679 -0.6189
 
              Baa    -0.0000    -0.000    -0.000    -0.000 -0.4507  0.7890 -0.4176
    20 Fe(57) Bbb    -0.0000    -0.000    -0.000    -0.000 -0.0904  0.4251  0.9006
              Bcc     0.0000     0.000     0.000     0.000  0.8881  0.4437 -0.1202
 
              Baa    -0.0000    -0.000    -0.000    -0.000 -0.0500 -0.2611  0.9640
    21 C(13)  Bbb     0.0000     0.000     0.000     0.000 -0.2237  0.9436  0.2439
              Bcc     0.0000     0.000     0.000     0.000  0.9734  0.2035  0.1056
 
              Baa    -0.0000    -0.000    -0.000    -0.000 -0.5743 -0.4458  0.6866
    22 H(1)   Bbb     0.0000     0.000     0.000     0.000 -0.0473  0.8554  0.5159
              Bcc     0.0000     0.000     0.000     0.000  0.8173 -0.2638  0.5123
 
              Baa    -0.0000    -0.000    -0.000    -0.000 -0.5654  0.8185 -0.1019
    23 H(1)   Bbb    -0.0000    -0.000    -0.000    -0.000 -0.2491 -0.0516  0.9671
              Bcc     0.0000     0.000     0.000     0.000  0.7863  0.5722  0.2330
 
              Baa    -0.0000    -0.000    -0.000    -0.000  0.9584 -0.2854 -0.0071
    24 N(14)  Bbb     0.0000     0.000     0.000     0.000  0.0080  0.0019  1.0000
              Bcc     0.0000     0.000     0.000     0.000  0.2854  0.9584 -0.0041
 
              Baa    -0.0000    -0.000    -0.000    -0.000  0.0433  0.9969  0.0664
    25 C(13)  Bbb    -0.0000    -0.000    -0.000    -0.000 -0.1952 -0.0567  0.9791
              Bcc     0.0000     0.000     0.000     0.000  0.9798 -0.0553  0.1922
 
              Baa    -0.0000    -0.000    -0.000    -0.000 -0.2451  0.8747 -0.4182
    26 H(1)   Bbb     0.0000     0.000     0.000     0.000  0.9689  0.2064 -0.1362
              Bcc     0.0000     0.000     0.000     0.000  0.0328  0.4386  0.8981
 
              Baa    -0.0000    -0.000    -0.000    -0.000  0.3783  0.8879  0.2619
    27 H(1)   Bbb    -0.0000    -0.000    -0.000    -0.000 -0.6614  0.0613  0.7475
              Bcc     0.0000     0.000     0.000     0.000  0.6477 -0.4560  0.6104
 
              Baa    -0.0000    -0.000    -0.000    -0.000 -0.0104  0.2670  0.9636
    28 C(13)  Bbb    -0.0000    -0.000    -0.000    -0.000 -0.1571  0.9513 -0.2653
              Bcc     0.0000     0.000     0.000     0.000  0.9875  0.1541 -0.0321
 
              Baa    -0.0000    -0.000    -0.000    -0.000  0.6087 -0.1624  0.7766
    29 H(1)   Bbb    -0.0000    -0.000    -0.000    -0.000 -0.4599  0.7253  0.5122
              Bcc     0.0000     0.000     0.000     0.000  0.6465  0.6690 -0.3668
 
              Baa    -0.0000    -0.000    -0.000    -0.000  0.3229  0.2334  0.9172
    30 H(1)   Bbb     0.0000     0.000     0.000     0.000  0.9452 -0.1280 -0.3002
              Bcc     0.0000     0.000     0.000     0.000  0.0473  0.9639 -0.2620
 
              Baa    -0.0000    -0.000    -0.000    -0.000  0.0048  0.2024  0.9793
    31 H(1)   Bbb     0.0000     0.000     0.000     0.000  0.8518  0.5122 -0.1100
              Bcc     0.0000     0.000     0.000     0.000 -0.5239  0.8347 -0.1700
 
              Baa    -0.0000    -0.000    -0.000    -0.000  0.9491 -0.1591  0.2717
    32 C(13)  Bbb     0.0000     0.000     0.000     0.000  0.2806  0.8190 -0.5005
              Bcc     0.0000     0.000     0.000     0.000 -0.1429  0.5513  0.8220
 
              Baa    -0.0000    -0.000    -0.000    -0.000  0.8701  0.4928  0.0072
    33 H(1)   Bbb    -0.0000    -0.000    -0.000    -0.000 -0.4911  0.8682 -0.0712
              Bcc     0.0000     0.000     0.000     0.000 -0.0413  0.0584  0.9974
 
              Baa    -0.0000    -0.000    -0.000    -0.000  0.8378  0.0378  0.5447
    34 H(1)   Bbb     0.0000     0.000     0.000     0.000  0.0379  0.9912 -0.1271
              Bcc     0.0000     0.000     0.000     0.000 -0.5447  0.1271  0.8290
 
              Baa    -0.0000    -0.000    -0.000    -0.000  0.2453 -0.4101  0.8784
    35 H(1)   Bbb     0.0000     0.000     0.000     0.000  0.9672  0.1647 -0.1931
              Bcc     0.0000     0.000     0.000     0.000 -0.0655  0.8970  0.4371
 
              Baa    -0.0000    -0.000    -0.000    -0.000  0.7347 -0.6753  0.0646
    36 P(31)  Bbb     0.0000     0.000     0.000     0.000  0.2048  0.3116  0.9279
              Bcc     0.0000     0.000     0.000     0.000  0.6467  0.6685 -0.3673
 
              Baa    -0.0000    -0.000    -0.000    -0.000 -0.6622  0.7414 -0.1085
    37 F(19)  Bbb    -0.0000    -0.000    -0.000    -0.000  0.7472  0.6422 -0.1712
              Bcc     0.0000     0.000     0.000     0.000  0.0572  0.1945  0.9792
 
              Baa    -0.0000    -0.000    -0.000    -0.000  0.4397  0.8915  0.1094
    38 F(19)  Bbb    -0.0000    -0.000    -0.000    -0.000  0.8726 -0.4528  0.1828
              Bcc     0.0000     0.000     0.000     0.000 -0.2125 -0.0151  0.9770
 
              Baa    -0.0000    -0.000    -0.000    -0.000  0.1053  0.0755  0.9916
    39 F(19)  Bbb    -0.0000    -0.000    -0.000    -0.000  0.9913  0.0713 -0.1106
              Bcc     0.0000     0.000     0.000     0.000 -0.0790  0.9946 -0.0673
 
              Baa    -0.0000    -0.000    -0.000    -0.000  0.9903  0.0362  0.1343
    40 F(19)  Bbb     0.0000     0.000     0.000     0.000 -0.0870 -0.5925  0.8008
              Bcc     0.0000     0.000     0.000     0.000 -0.1086  0.8047  0.5836
 
              Baa    -0.0000    -0.000    -0.000    -0.000  0.1355  0.7047 -0.6964
    41 F(19)  Bbb     0.0000     0.000     0.000     0.000  0.9815  0.0007  0.1917
              Bcc     0.0000     0.000     0.000     0.000 -0.1356  0.7095  0.6915
 
              Baa    -0.0000    -0.000    -0.000    -0.000  0.4277  0.8568 -0.2881
    42 F(19)  Bbb     0.0000     0.000     0.000     0.000  0.7839 -0.1929  0.5901
              Bcc     0.0000     0.000     0.000     0.000 -0.4501  0.4782  0.7541
 
              Baa    -0.0000    -0.000    -0.000    -0.000  0.7461  0.6631 -0.0604
    43 C(13)  Bbb    -0.0000    -0.000    -0.000    -0.000 -0.6654  0.7459 -0.0296
              Bcc     0.0000     0.000     0.000     0.000  0.0255  0.0622  0.9977
 
              Baa    -0.0000    -0.000    -0.000    -0.000 -0.0497 -0.3722  0.9268
    44 C(13)  Bbb    -0.0000    -0.000    -0.000    -0.000  0.2122  0.9029  0.3739
              Bcc     0.0000     0.000     0.000     0.000  0.9760 -0.2152 -0.0341
 
              Baa    -0.0000    -0.000    -0.000    -0.000  0.0835 -0.2233  0.9712
    45 C(13)  Bbb    -0.0000    -0.000    -0.000    -0.000 -0.4355  0.8684  0.2371
              Bcc     0.0000     0.000     0.000     0.000  0.8963  0.4427  0.0248
 
              Baa    -0.0000    -0.000    -0.000    -0.000  0.7937  0.1487 -0.5899
    46 C(13)  Bbb     0.0000     0.000     0.000     0.000  0.6040 -0.0777  0.7932
              Bcc     0.0000     0.000     0.000     0.000 -0.0721  0.9858  0.1515
 
              Baa    -0.0000    -0.000    -0.000    -0.000 -0.1724 -0.0980  0.9801
    47 H(1)   Bbb    -0.0000    -0.000    -0.000    -0.000  0.8596 -0.5009  0.1011
              Bcc     0.0000     0.000     0.000     0.000  0.4811  0.8599  0.1705
 
              Baa    -0.0000    -0.000    -0.000    -0.000  0.1081 -0.1211  0.9867
    48 C(13)  Bbb     0.0000     0.000     0.000     0.000  0.8874 -0.4356 -0.1507
              Bcc     0.0000     0.000     0.000     0.000  0.4481  0.8920  0.0604
 
              Baa    -0.0000    -0.000    -0.000    -0.000 -0.0233 -0.2156  0.9762
    49 H(1)   Bbb    -0.0000    -0.000    -0.000    -0.000  0.8848  0.4501  0.1206
              Bcc     0.0000     0.000     0.000     0.000 -0.4654  0.8665  0.1803
 
              Baa    -0.0000    -0.000    -0.000    -0.000 -0.0387 -0.1183  0.9922
    50 C(13)  Bbb    -0.0000    -0.000    -0.000    -0.000  0.3519  0.9278  0.1244
              Bcc     0.0000     0.000     0.000     0.000  0.9352 -0.3539 -0.0057
 
              Baa    -0.0000    -0.000    -0.000    -0.000 -0.1214 -0.1872  0.9748
    51 H(1)   Bbb    -0.0000    -0.000    -0.000    -0.000  0.8784  0.4372  0.1934
              Bcc     0.0000     0.000     0.000     0.000 -0.4623  0.8797  0.1114
 
              Baa    -0.0000    -0.000    -0.000    -0.000  0.8079 -0.5893  0.0043
    52 H(1)   Bbb    -0.0000    -0.000    -0.000    -0.000 -0.0766 -0.0978  0.9923
              Bcc     0.0000     0.000     0.000     0.000  0.5843  0.8020  0.1242
 
              Baa    -0.0000    -0.000    -0.000    -0.000 -0.1243 -0.1554  0.9800
    53 H(1)   Bbb    -0.0000    -0.000    -0.000    -0.000 -0.2916  0.9498  0.1136
              Bcc     0.0000     0.000     0.000     0.000  0.9484  0.2717  0.1634
 

 ---------------------------------------------------------------------------------

 No NMR shielding tensors so no spin-rotation constants.
 Leave Link  601 at Sat Feb  1 19:48:52 2025, MaxMem= 13421772800 cpu:              67.4 elap:               0.8
 (Enter /gpfs/fs1/soft/improv/software/custom-built/gaussian/g16/l9999.exe)
 Unable to Open any file for archive entry.
 1\1\GINC-I588\SP\UB3LYP\Gen\C20H24F6Fe1N1P1\HHARB\01-Feb-2025\0\\#p ub
 3lyp scf=(novaracc,maxcycles=1000,fermi,xqc) empiricaldispersion=gd3 g
 eom=allcheck guess=read chkbasis scrf=(cpcm,solvent=acetonitrile)\\Tit
 le Card Required\\0,1\C,-0.9961018855,0.8714539864,-2.5557026929\H,-0.
 3519917117,1.7227938971,-2.7170820024\C,-2.0981520773,0.4906777358,-3.
 372160469\H,-2.4431381624,1.0008857042,-4.260386352\C,-2.7096863185,-0
 .6685849191,-2.7846943177\C,-0.9066722073,-0.0550430732,-1.4731667169\
 H,-0.1859270967,-0.0207786161,-0.6699650471\C,-1.9609973862,-1.0023207
 727,-1.6020790413\H,-2.2050044225,-1.7934208411,-0.9120405718\C,-3.067
 7855389,2.7274141454,-0.6951958361\H,-2.4307935208,3.5864673861,-0.846
 5285254\C,-4.1668205227,2.3392714136,-1.5198343211\H,-4.5071214769,2.8
 566065209,-2.404987956\C,-4.7240060453,1.1434198232,-0.9755384981\H,-5
 .5522542903,0.5700286936,-1.3632469781\C,-2.9507965772,1.7677141122,0.
 3560297778\H,-2.2025922105,1.772174974,1.1350143039\C,-3.9732754669,0.
 7888689471,0.181268512\H,-4.1515669881,-0.0901659968,0.780619662\Fe,-2
 .7464247084,0.8583910481,-1.4682606335\C,-3.9888359175,-1.2805404642,-
 3.2276672694\H,-4.5165957975,-0.6064355867,-3.9061888064\H,-4.63075090
 16,-1.5011005188,-2.3832624446\N,-3.8679800059,-2.6136363515,-3.996622
 783\C,-3.1495715212,-3.639389859,-3.0982412558\H,-2.1344838693,-3.2576
 042626,-2.9919273773\H,-3.6544949923,-3.5735265813,-2.1368749638\C,-3.
 1171184192,-2.4030738871,-5.2670622836\H,-3.0317976938,-3.351654826,-5
 .7956297673\H,-3.6620647518,-1.6830445038,-5.8797331281\H,-2.129830665
 9,-2.0067368042,-5.0290147396\C,-5.2673462212,-3.0687826575,-4.2960432
 081\H,-5.7621738704,-2.2876792739,-4.8748416184\H,-5.2253769606,-3.992
 4021024,-4.8708805076\H,-5.7856653818,-3.2290159055,-3.3513670889\P,-5
 .9226034627,-2.8121313363,-0.1217552778\F,-6.3064543071,-1.7031159147,
 -1.275325954\F,-5.8355610477,-3.9389136042,-1.3301538956\F,-7.46695887
 26,-3.1345717587,0.0835145728\F,-5.4898181448,-3.9163077642,0.94222940
 39\F,-5.9452700615,-1.6587583354,0.990840092\F,-4.3285052092,-2.477854
 7204,-0.4087791412\C,-3.1580806358,-5.0465954346,-3.6263476123\C,-4.15
 45514192,-5.9386132538,-3.211063424\C,-2.1530602863,-5.4983730708,-4.4
 888360067\C,-4.1578847667,-7.2489132448,-3.6807651966\H,-4.9110272218,
 -5.6011280525,-2.5115902231\C,-2.1593365379,-6.808486277,-4.958654858\
 H,-1.3503617777,-4.8263843143,-4.7784754283\C,-3.1668806356,-7.6839638
 568,-4.558764429\H,-4.9316286961,-7.9336188503,-3.3509138421\H,-1.3732
 294699,-7.1481438892,-5.624374719\H,-3.1711271636,-8.7069801163,-4.919
 6204656\\Version=ES64L-G16RevC.02\State=1-A\HF=-3035.7577966\S2=0.\S2-
 1=0.\S2A=0.\RMSD=4.639e-09\Dipole=3.174629,0.1030831,-5.7146044\Quadru
 pole=-10.5573236,6.9728291,3.5844945,-0.968168,10.5571937,8.4676322\PG
 =C01 [X(C20H24F6Fe1N1P1)]\\@
 The archive entry for this job was punched.


 FORGIVE MY NONSENSE AS I ALSO FORGIVE THOSE WHO THINK THEY TALK SENSE

                                                       -- ROBERT FROST
 Job cpu time:       0 days  4 hours 16 minutes  1.0 seconds.
 Elapsed time:       0 days  0 hours  2 minutes 17.2 seconds.
 File lengths (MBytes):  RWF=    816 Int=      0 D2E=      0 Chk=    128 Scr=      1
 Normal termination of Gaussian 16 at Sat Feb  1 19:48:52 2025.
