21
 energy: -45.279611234758 gnorm: 0.000479264866 xtb: 6.6.0 (conda-forge)
C            0.98489999999988       -0.90610000000040       -0.14629999999631
C            2.07149373661824       -0.04853475834391        0.34788045437923
O            2.74161265771712        0.70458853627007       -0.36237116549391
O            2.26685057855069       -0.11437838717604        1.63790761126822
C           -0.44793097861248       -0.13710461530483        0.03480728676138
C           -0.74504987988426        0.73356921742537       -1.32952718360958
C           -0.14399842855879        2.06719361695487       -1.20546174850061
O            0.97999303998272        2.36568268303469       -1.61736193629451
O           -0.88859347330175        2.93852985030314       -0.57622763022727
C           -1.46927998764400       -1.29773289144343       -0.14740650893407
O           -2.37726032703388       -1.52108383821285        0.62149732652620
O           -1.27041488418592       -2.02417571818352       -1.23667217283537
O           -0.57490437157740        0.52234328681740        1.13448936043110
H            0.90592388137375       -1.78326331636645        0.49300071755189
H            1.11734296749925       -1.17342047247448       -1.18856134872260
H            2.93562698755428        0.52197235823480        1.96560171485524
H           -1.82885089705876        0.83105241316347       -1.35465033945252
H           -0.36242796927047        0.18745385148937       -2.18425416757368
H           -0.44412148277953        3.79839519624999       -0.42635031297687
H           -1.93126622211118       -2.74082766246047       -1.33415781016061
Li           2.67101016408600        1.97879946558153       -1.53740467912550
