80
 energy: -146.997148591498 gnorm: 0.000182043651 xtb: 6.6.0 (conda-forge)
C            0.98490000018989       -0.90610000014736       -0.14630000010162
C            1.60803693306732       -0.07179946297606        0.92463552470393
O            1.71361121998713        1.13759192441676        0.90576269813944
O            2.03860250167568       -0.79081769731304        1.94754902003652
C           -0.58226348557457       -0.77637880518947        0.07232525441029
C           -1.13648174832351        0.32044004234835       -0.99419440049200
C           -0.37316643092785        1.58684869886748       -0.93429980906685
O            0.57050427324885        1.85107496645071       -1.66292833218662
O           -0.82182033545713        2.44398458878334       -0.02782090321673
C           -1.26915714074145       -2.04333357473949       -0.49687639795518
O           -2.42044641124779       -2.33794147408899       -0.22514964309408
O           -0.53397667236125       -2.77206726847217       -1.30076250912450
O           -0.93416644053864       -0.54025882459791        1.31933927056259
H            1.28225406125024       -1.94224541913218       -0.00557225216751
H            1.25747945099979       -0.54143852729764       -1.13314000660556
H            2.37804247057892       -0.23600312794596        2.67922024633416
H           -2.17311898216502        0.48425373028411       -0.70846539445450
H           -1.05178549147472       -0.10951378540927       -1.99073152843279
H           -0.25813172197040        3.24025448013823        0.02579631422579
H           -1.02591397817419       -3.58508489053546       -1.67582898604528
O            2.46917714776925       -0.82948486449245        7.46988798600065
H            1.67404793394580       -1.28406752869305        7.17414798202256
H            3.20291895038698       -1.44107958428898        7.35162208043944
O           -2.76044487352473       -2.57995144496356        5.98518443440758
H           -3.61437776761251       -2.14681653108029        6.08342454724658
H           -2.40223180564703       -2.29473656014871        5.13917078511531
O           -0.16709172002330        3.54824602260198        5.35664880959474
H           -0.43055769666489        2.91158644988119        4.68519601513665
H            0.31231515804670        3.06074655345843        6.03404277452145
O            3.37940641273532       -5.32710787447191        4.65639123846087
H            2.71749104149497       -4.78965604417543        4.21040503248234
H            3.12977883358872       -6.24685334196318        4.52261493973203
O           -5.47013478620277        1.65094170421583        3.56515828081033
H           -6.05750276602287        0.91071189454211        3.38235078849082
H           -4.60902460294715        1.41796848694083        3.20468321858522
O            5.67688998670717        3.27420338625437        3.08633610618009
H            4.86896593264152        3.61550588115123        3.48244253747246
H            5.63874465020080        3.48760441076229        2.14875784940527
O           -1.37221807867720       -6.87161002358851        3.05284156323445
H           -1.68357077187860       -6.13108749517027        2.52368125726169
H           -1.71088212319526       -6.73986773535148        3.94391950304924
O           -3.15004844836172        6.67536302453425        2.35812541034266
H           -3.49024697071409        5.94189748354612        2.88024896547423
H           -2.20222512861966        6.71520836581898        2.51961247040385
O            5.89005303312351       -2.58060693256414        0.67686445079747
H            5.58796623671574       -3.49028032004096        0.76404298991058
H            6.26667512128927       -2.32915201309820        1.52593277020088
O           -4.96792509366601       -2.93576406364131        1.10391678279488
H           -5.20298967338375       -3.67450571932250        0.53256888410356
H           -4.11904685184716       -2.60931987616849        0.77826775791464
O            3.71359966911508        6.43806145930016       -1.01876780948765
H            3.03659432716063        7.07070627445052       -1.27909894942213
H            3.48761372388372        5.59968931563151       -1.43354021263076
O            2.69551647172183       -7.36348065836976       -0.16534706192638
H            2.20712222343481       -6.54097276155147       -0.06251636066442
H            2.11608357789525       -8.07163268445829        0.13310186734930
O           -5.51922405831400        3.49088612070647       -1.62657094259715
H           -6.01335927252171        2.98580306975788       -0.97322579923629
H           -5.07677158541816        4.20132084141452       -1.15141283661319
O            6.21292447753526        1.47649920195715       -2.51637676152498
H            5.37144272713632        1.36767865981096       -2.06324844959593
H            6.89892995273480        1.19338390885360       -1.90352628807431
O           -1.73478029262423       -4.84161032318004       -2.43091502010232
H           -2.47288039311449       -4.57246768519169       -2.98826086689518
H           -1.11359298012965       -5.31837751016648       -2.99477278010723
O           -0.68387174090668        6.28107408790127       -3.97793775894338
H           -1.50174146663820        5.92544717813299       -3.61712602305108
H           -0.27381236719176        5.57974629814494       -4.49372656011077
O            4.19878803465654       -3.49945076130860       -4.30890539679390
H            3.66574071958047       -3.70576917788100       -3.53464208240959
H            4.89063207793042       -2.89664579980842       -4.01942093932425
O           -5.64679096437995       -1.36612539847192       -4.22148757494324
H           -5.74883702138344       -1.04282691665042       -3.32096373131191
H           -4.94686738138638       -0.84672704834432       -4.62929874939883
O            2.97553289844298        2.49007359348279       -6.58666320131510
H            2.65296390564558        2.17410545121382       -5.73717323247218
H            3.91934452875611        2.64955015532574       -6.48381920029853
O           -0.29481975841074       -2.45655328950018       -6.62070406763226
H            0.37934611142048       -2.98766314793241       -7.05697391090625
H            0.16595140333494       -1.76870594613547       -6.13084720401603
