81
 energy: -147.075140182603 gnorm: 0.003293991296 xtb: 6.6.0 (conda-forge)
C            0.98490000083868       -0.90609999956931       -0.14630000000216
C            1.19514529845655        0.20633945688236        0.85038667598503
O            0.36033872855949        1.00795460112324        1.20676967880381
O            2.43210771142491        0.21717629598321        1.31202909979424
C           -0.47709312495003       -1.15906004889899       -0.44454727539160
C           -1.09669524748346       -0.30657858550966       -1.54562273185650
C           -0.88080199270400        1.15577313145562       -1.27161006507025
O            0.13837363199888        1.75527670787838       -1.54851326605726
O           -1.92444739381553        1.74125952559982       -0.71926118843870
C           -1.09059451617368       -2.48676484926019       -0.18624465733387
O           -2.06071137422897       -2.99318150471092       -0.85400868139254
O           -0.20845380852190       -3.40195477428303        0.40186870462980
O           -1.32069511238382       -1.36989498324006        0.70003560346414
H            1.43482223864857       -1.81362660145600        0.25896689744235
H            1.49448573007495       -0.63520858565281       -1.07187800600645
H            2.60117191918248        0.94126213614479        1.94874999188814
H           -2.16162906081732       -0.53266908114893       -1.57254692366703
H           -0.63387735091755       -0.58796748864092       -2.49228372785993
H           -1.75636217844474        2.67948115487961       -0.49869773154639
H           -0.69791464087128       -4.22038096424842        0.57418432551184
Li           6.81054724918949        0.09294981243508       -0.96056078271539
O            3.51188282223113        0.74862884648972        6.59773956770969
H            2.94651810555625       -0.02379175549762        6.69228984942556
H            4.41343370554850        0.42682054072620        6.49218812395329
O           -0.51213268406462       -3.04825976612298        5.98067124460243
H           -1.14665423731020       -2.60919919573386        6.55575470560491
H           -0.68980510375145       -2.74321838436740        5.08630942758922
O            1.99111901531994        5.22564516624795        3.74326420909022
H            1.10663105842289        5.32229365812496        3.37677994582552
H            1.90190405179227        4.75425121943871        4.57765386837688
O            4.47096297573133       -3.90058114106887        4.28087308062783
H            3.68363828267721       -3.63028221186487        3.79709465454483
H            4.17185203100427       -4.38659938510081        5.05575194007954
O           -4.69470725889233        0.05007557250445        4.86789428209322
H           -5.62048507751687       -0.03238278372937        4.61763274154946
H           -4.18880448156894        0.13104055843621        4.05329435705922
O            7.27398819940867        2.95036840231128        3.33732192382063
H            6.37616667835663        3.27543348217835        3.45333612664473
H            7.75934199640974        3.63412300092665        2.86531961932342
O           -0.47441979710909       -7.76896956660201        3.78399186967040
H           -1.25211229657574       -7.29963887146581        4.10087829038229
H            0.27447814196799       -7.44968032712257        4.29810627410390
O           -3.42433770375747        6.20558368523724        2.22579022577371
H           -3.86444656858569        6.72370478094278        1.54457738707976
H           -4.01723189017759        5.48293473018177        2.45465922440778
O            6.42974231915703       -1.20032454561485        0.18243330397878
H            6.02235883440114       -2.06509204053277        0.04295808773751
H            6.64334204668993       -1.18905707901277        1.12541679707849
O           -6.97405346217531       -0.71781981003379        0.13666331083021
H           -6.32194458535526       -1.42485089947142        0.13884598666927
H           -6.49703853439925        0.10167744846996       -0.03036015408607
O            5.20330687398098        5.15312792200201       -0.73568096702791
H            5.09686836672172        5.24924515809342       -1.68677883877223
H            4.32240338011506        5.05697615058275       -0.36157840398417
O            3.57803904989345       -5.40348935966252       -2.21234278126280
H            2.71204820850821       -5.17589726436315       -2.56128984727887
H            3.44412974722032       -5.73037243886746       -1.31738930789470
O           -6.47762930736101        4.57840522775580       -1.76958492006483
H           -7.33303597397792        4.27703499383698       -2.09101024650810
H           -5.80774296581455        4.11860734154122       -2.28543528640666
O            8.08657996997776        0.96254042430966       -1.81267495097845
H            8.32810167661279        1.89718975933053       -1.76898659647634
H            8.71504788614465        0.58281493752173       -2.44079877998691
O           -1.61078318078597       -3.01144005000913       -3.49601163390486
H           -2.15060725590393       -3.72694037321218       -3.84726493501755
H           -1.78585538609647       -3.00858536692685       -2.52646332357565
O            1.45571722509188        6.16302024239772       -4.56906973874976
H            0.67388063551921        6.72330570043871       -4.56454761464822
H            1.18784535592662        5.29996760761644       -4.23914812417704
O            7.67973025315509       -3.12759226141255       -5.08356768763502
H            7.21891205452205       -3.77816528911083       -4.54547883759699
H            7.21742385248680       -3.08261922839879       -5.92523226975232
O           -6.00893994700268        0.30129592643059       -5.02414045684029
H           -6.68527401143079       -0.29482779550332       -4.69096684042196
H           -5.16202568460523       -0.13973277662354       -4.90852986579084
O            5.56645424241005        2.10250803178695       -5.24576375104788
H            4.61502730086403        2.21163378849997       -5.15388905468241
H            5.70721464859779        1.34835216164040       -5.82867972998183
O            2.21018918658921       -1.53409498786364       -6.73608288581429
H            1.37147329320451       -1.07071446817076       -6.65413194230359
H            2.14178236198410       -2.33140625359587       -6.20207053241421
