82
 energy: -147.080639625992 gnorm: 0.189876794366 xtb: 6.6.0 (conda-forge)
C            0.98490000000000       -0.90610000000000       -0.14630000000000
C            1.98910000000000        0.13430000000000        0.26100000000000
O            2.57510000000000        0.82640000000000       -0.61360000000000
O            2.30710000000000        0.30580000000000        1.60500000000000
C           -0.49910000000000       -0.54820000000000        0.17210000000000
C           -1.11270000000000        0.47020000000000       -0.83490000000000
C           -0.44530000000000        1.81430000000000       -0.87050000000000
O            0.34750000000000        2.09960000000000       -1.80750000000000
O           -0.72680000000000        2.76110000000000        0.10970000000000
C           -1.31120000000000       -1.81980000000000        0.04520000000000
O           -2.13830000000000       -2.14390000000000        0.94080000000000
O           -1.18240000000000       -2.61960000000000       -1.08840000000000
O           -0.63030000000000       -0.09300000000000        1.50200000000000
H            1.26010000000000       -1.84190000000000        0.38880000000000
H            1.09530000000000       -1.11580000000000       -1.23350000000000
H            2.99040000000000        0.99570000000000        1.89330000000000
H           -2.18310000000000        0.63270000000000       -0.57990000000000
H           -1.09070000000000        0.03920000000000       -1.86090000000000
H           -0.28820000000000        3.67400000000000        0.09130000000000
H           -1.73090000000000       -3.46470000000000       -1.19360000000000
Na           6.98890500000000       -0.03998500000000       -0.16099500000000
Na          -6.96785500000000       -0.03998500000000       -0.16099500000000
O            3.14056800000000        0.35775800000000        9.33900500000000
H            2.36592100000000       -0.22437800000000        9.33900500000000
H            3.89258300000000       -0.25333500000000        9.33900500000000
O           -3.86626300000000       -3.20060700000000        8.33900500000000
H           -4.64091000000000       -3.78274400000000        8.33900500000000
H           -3.11424800000000       -3.81170100000000        8.33900500000000
O            0.59633600000000        6.94681100000000        7.33900500000000
H           -0.17831100000000        6.36467400000000        7.33900500000000
H            1.34835100000000        6.33571700000000        7.33900500000000
O            4.64180400000000       -5.67308500000000        6.33900500000000
H            3.86715700000000       -6.25522200000000        6.33900500000000
H            5.39381900000000       -6.28417900000000        6.33900500000000
O           -8.20591000000000        1.81246500000000        5.33900500000000
H           -8.98055700000000        1.23032800000000        5.33900500000000
H           -7.45389500000000        1.20137100000000        5.33900500000000
O            7.55304500000000        5.15089300000000        4.33900500000000
H            6.77839800000000        4.56875700000000        4.33900500000000
H            8.30506000000000        4.53980000000000        4.33900500000000
O           -2.41377300000000       -8.68857500000000        3.33900500000000
H           -3.18842100000000       -9.27071100000000        3.33900500000000
H           -1.66175800000000       -9.29966800000000        3.33900500000000
O           -4.44464400000000        8.95044100000000        2.33900500000000
H           -5.21929100000000        8.36830400000000        2.33900500000000
H           -3.69262900000000        8.33934700000000        2.33900500000000
O            9.30500700000000       -3.03381600000000        1.33900500000000
H            8.53036000000000       -3.61595300000000        1.33900500000000
H           10.05702200000000       -3.64491000000000        1.33900500000000
O           -9.21382500000000       -3.45303300000000        0.33900500000000
H           -9.98847200000000       -4.03517000000000        0.33900500000000
H           -8.46181000000000       -4.06412700000000        0.33900500000000
O            4.25122800000000        9.40377200000000       -0.66099500000000
H            3.47658000000000        8.82163600000000       -0.66099500000000
H            5.00324300000000        8.79267900000000       -0.66099500000000
O            2.97704700000000       -9.07592900000000       -1.66099500000000
H            2.20240000000000       -9.65806500000000       -1.66099500000000
H            3.72906200000000       -9.68702200000000       -1.66099500000000
O           -8.35930200000000        5.21261600000000       -2.66099500000000
H           -9.13395000000000        4.63048000000000       -2.66099500000000
H           -7.60728700000000        4.60152300000000       -2.66099500000000
O            9.16707600000000        2.36914200000000       -3.66099500000000
H            8.39242900000000        1.78700500000000       -3.66099500000000
H            9.91909100000000        1.75804800000000       -3.66099500000000
O           -5.11800100000000       -6.94777300000000       -4.66099500000000
H           -5.89264800000000       -7.52990900000000       -4.66099500000000
H           -4.36598600000000       -7.55886600000000       -4.66099500000000
O           -1.05520700000000        8.64015400000000       -5.66099500000000
H           -1.82985400000000        8.05801800000000       -5.66099500000000
H           -0.30319200000000        8.02906000000000       -5.66099500000000
O            5.82889800000000       -4.53961500000000       -6.66099500000000
H            5.05425100000000       -5.12175100000000       -6.66099500000000
H            6.58091300000000       -5.15070800000000       -6.66099500000000
O           -6.59066100000000        0.08446700000000       -7.66099500000000
H           -7.36530800000000       -0.49767000000000       -7.66099500000000
H           -5.83864600000000       -0.52662700000000       -7.66099500000000
O            3.75206000000000        4.07357800000000       -8.66099500000000
H            2.97741300000000        3.49144100000000       -8.66099500000000
H            4.50407500000000        3.46248400000000       -8.66099500000000
O           -0.12616400000000       -2.76140800000000       -9.66099500000000
H           -0.90081100000000       -3.34354400000000       -9.66099500000000
H            0.62585100000000       -3.37250100000000       -9.66099500000000
82
 energy: -147.114011053707 gnorm: 0.092209893413 xtb: 6.6.0 (conda-forge)
C            0.98490000000001       -0.90610000000001       -0.14630000000002
C            1.98452406831642        0.14281387773594        0.24592653672506
O            2.59437018536145        0.81895416594377       -0.58270754518699
O            2.27655281503572        0.26439392635073        1.56446182645933
C           -0.50317679909970       -0.53957088712572        0.20509578032498
C           -1.10874373041020        0.48131567370651       -0.83269262431474
C           -0.42839965824935        1.81331703525253       -0.88074672836610
O            0.34171277913832        2.12033519057358       -1.78970077984597
O           -0.73920183107324        2.70894384797253        0.08999744336520
C           -1.33457988558590       -1.81590822595793        0.04978866197489
O           -2.15002130056843       -2.16720826507084        0.89650906769038
O           -1.16054181902502       -2.57451637622658       -1.06933246172349
O           -0.63121186670578       -0.09233305816638        1.49168108484325
H            1.23303343352457       -1.82826954921575        0.40111977582846
H            1.09247131356535       -1.09237506941698       -1.22385456451637
H            2.93227097807579        0.96333794123679        1.83134284072224
H           -2.16301573846878        0.62822082825742       -0.55226998746597
H           -1.06671043055188        0.05142027309827       -1.84471400513265
H           -0.29524174821979        3.59729106002777        0.05632226158527
H           -1.70633943278203       -3.40274062074986       -1.15399899795728
Na           6.99141019552118       -0.04242651489744       -0.15614586135116
Na          -6.97268214095911       -0.05311372766724       -0.15137479782215
O            3.14118562401504        0.35167330009435        9.34272655463831
H            2.36312297787719       -0.21924481990580        9.33598102058402
H            3.89463943908086       -0.25166665051942        9.33710328926480
O           -3.86701391498156       -3.20698859684801        8.34425070389184
H           -4.64348237737453       -3.78052537803724        8.33734019603997
H           -3.11160630513090       -3.80756040159796        8.33544165685083
O            0.59613855373805        6.94025524710930        7.33983425903588
H           -0.18087824469353        6.36782254249753        7.33823687731655
H            1.35051863007980        6.33821059464878        7.33879632141504
O            4.64272717432285       -5.67928840123211        6.33951308470237
H            3.86445181207529       -6.24988223943918        6.33818436021352
H            5.39643289293939       -6.28249709962628        6.33953956726400
O           -8.20586792325944        1.80511484127323        5.33175252377179
H           -8.98268591277305        1.23183567450661        5.34043029221873
H           -7.45010513399071        1.20472786393506        5.34012984501473
O            7.55299409589570        5.14397260939666        4.33612799339219
H            6.77512208565698        4.57255677618445        4.34062247986300
H            8.30756382233182        4.54181161677271        4.33967921507765
O           -2.41380723944769       -8.69537229683214        3.33870134900345
H           -3.19101517835029       -9.26798635404086        3.33938956830681
H           -1.65892538902714       -9.29687165296510        3.33905336564695
O           -4.44500763862018        8.94387228176947        2.33898522400722
H           -5.22196581441796        8.37111947119763        2.33857489086059
H           -3.69029981195618        8.34235547464901        2.33947390475459
O            9.29186177016656       -3.03578243613823        1.32226065261348
H            8.52804357208482       -3.62484460747697        1.34478452172854
H           10.05701506592333       -3.62528298314787        1.34502840290860
O           -9.20164773933477       -3.45451187634138        0.33318244851310
H           -9.98785151646512       -4.01555244517493        0.34094007399866
H           -8.45995239679628       -4.07118960067487        0.34134122798214
O            4.25130361429079        9.39747760714116       -0.66075572871788
H            3.47388066208905        8.82566219261601       -0.66146122269349
H            5.00553753009627        8.79510722342302       -0.66078628273314
O            2.97771732724417       -9.08231900864980       -1.66201679538282
H            2.20005973684633       -9.65391730545277       -1.66053899104057
H            3.73189557995581       -9.68481787255643       -1.66068037179473
O           -8.36015853570722        5.20596735185064       -2.65946190267515
H           -9.13665891477837        4.63220211434202       -2.66145503288824
H           -7.60349551359612        4.60649502252574       -2.66330708071509
O            9.16705406079908        2.36207745731806       -3.65697017609038
H            8.38879182371249        1.79076489454562       -3.66908894343674
H            9.92245047972594        1.76026615538081       -3.66400577061126
O           -5.11802540552285       -6.95401109951026       -4.66018169624441
H           -5.89498473811103       -7.52673352077072       -4.66154479806451
H           -4.36318767550816       -7.55530519361812       -4.66095837472604
O           -1.05540388417401        8.63362485767843       -5.66161949545847
H           -1.83229652393697        8.06093400448190       -5.66036569253483
H           -0.30059806350975        8.03209847195986       -5.66106373882017
O            5.82955268211791       -4.54575610205911       -6.66090799300108
H            5.05179189807339       -5.11710046039975       -6.65956040938378
H            6.58360793724563       -5.14836441798195       -6.66128169127698
O           -6.59101700941366        0.07786883566276       -7.65811842431521
H           -7.36767118510190       -0.49542610831104       -7.66174113608813
H           -5.83561403457172       -0.52280456253760       -7.66137778576206
O            3.75187539390403        4.06731819721103       -8.66412921202806
H            2.97476989516934        3.49501926969065       -8.65904464164310
H            4.50634317547060        3.46528148989833       -8.65914586550911
O           -0.12634198750409       -2.76771878625552       -9.66232696436226
H           -0.90320232785933       -3.34052275722940       -9.66043265988325
H            0.62883162503118       -3.36885933455472       -9.66011827034886
82
 energy: -147.128406487034 gnorm: 0.038133517179 xtb: 6.6.0 (conda-forge)
C            0.98490000000004       -0.90610000000004       -0.14630000000005
C            2.00012546752608        0.12921793290718        0.23377024493449
O            2.60228184144449        0.82267535467525       -0.55977094453484
O            2.23772120776895        0.21880388162821        1.53286467598853
C           -0.50456799218949       -0.51583958286624        0.25318274223535
C           -1.11099986725957        0.49018880696979       -0.83791133930819
C           -0.42631280450277        1.81537426752333       -0.89795898043289
O            0.35122497864873        2.13144485779325       -1.77224889983113
O           -0.75627366580224        2.65239387190888        0.07585698377836
C           -1.34723162456816       -1.80897093405206        0.05738244642221
O           -2.17090689174875       -2.17295809202705        0.85846655292246
O           -1.12686814696182       -2.51516823481566       -1.05371815706694
O           -0.62567467572767       -0.08248750074550        1.48727984747872
H            1.21211659180465       -1.81435060988310        0.41142701056647
H            1.06669271747535       -1.07937098226733       -1.21714681087748
H            2.85846796760894        0.93743036702694        1.77291445680767
H           -2.14736782714674        0.63344013852149       -0.53246722155276
H           -1.05076507049002        0.04119034947538       -1.82913839651660
H           -0.29742022001362        3.51354123195592        0.02419474790773
H           -1.67854526984331       -3.32398320369497       -1.11531947503084
Na           6.99460565315818       -0.04722049672270       -0.14614392440038
Na          -6.98292085597736       -0.07401602520531       -0.13576363097480
O            3.14239908726474        0.34456566485822        9.34750311076202
H            2.35768473754775       -0.21221917043728        9.33159718893656
H            3.89858068479298       -0.25067406046222        9.33450705369072
O           -3.86834845882372       -3.21455252477117        8.35077020842075
H           -4.64831778502952       -3.77844945917822        8.33540651778687
H           -3.10665240386910       -3.80228295252175        8.33063447981041
O            0.59593697517146        6.93233580830896        7.34121046183090
H           -0.18591986096733        6.37143702038300        7.33694222611401
H            1.35482700676041        6.34064268368628        7.33867741338282
O            4.64451713736071       -5.68649360239525        6.34050343693334
H            3.85928813283055       -6.24251837315251        6.33674010900633
H            5.40112167329211       -6.28146973014675        6.34021498388866
O           -8.20569425072402        1.79592136005326        5.31516632303433
H           -8.98641286108868        1.23277161619538        5.34267052865728
H           -7.44342143086304        1.20854684882830        5.34605688179082
O            7.55304331464444        5.13549655637245        4.32964502657788
H            6.76925821290854        4.57713381303551        4.34384185115303
H            8.31195744003648        4.54340618179723        4.34192989463883
O           -2.41386588337087       -8.70358814301279        3.33791929957732
H           -3.19582135213924       -9.26494630463966        3.34000339612996
H           -1.65381666294263       -9.29387206790526        3.33917127735305
O           -4.44557713040036        8.93604951647570        2.33909536909705
H           -5.22705322395045        8.37428191204512        2.33811750116219
H           -3.68577709284167        8.34570441806609        2.34009570083032
O            9.26976786681833       -3.03671014050070        1.30717035152384
H            8.52228397118181       -3.64155003018348        1.36297491205262
H           10.05766943386739       -3.59277404882489        1.33372819766980
O           -9.18051331490751       -3.45414732841400        0.33087389650844
H           -9.98761877260933       -3.98229161182958        0.33626391447737
H           -8.45489480811457       -4.08546162554757        0.34586292613101
O            4.25167144648870        9.39013148253079       -0.66050057983139
H            3.46871493962129        8.83086435968017       -0.66201077754235
H            5.00996421837083        8.79749087986648       -0.66023805300717
O            2.97896369126251       -9.08982520754542       -1.66316498133661
H            2.19549296604294       -9.64852652718359       -1.66012826538507
H            3.73705283554502       -9.68277669672408       -1.66064291800461
O           -8.36126617631933        5.19785155902126       -2.64882037632196
H           -9.14119898029736        4.63349757543592       -2.66455066181497
H           -7.59715377115834        4.61243650028781       -2.67221394121225
O            9.16753648236697        2.35373240584035       -3.60206502078483
H            8.38283375249993        1.79617188357735       -3.72603401321057
H            9.92762458024408        1.76215351031446       -3.67516639680139
O           -5.11808792677653       -6.96112716073971       -4.65965959867741
H           -5.89952095771348       -7.52288437199296       -4.66219991598855
H           -4.35793892280242       -7.55092231997701       -4.66054244916310
O           -1.05559207330966        8.62593513705873       -5.66273733503191
H           -1.83699756792264        8.06431071786734       -5.65940153994235
H           -0.29562555858462        8.03559072681382       -5.66083467062547
O            5.83079069337167       -4.55274219446463       -6.66256371659479
H            5.04701064815392       -5.11084320579667       -6.65627872113054
H            6.58856986797781       -5.14601742739430       -6.66088327426540
O           -6.59156797106335        0.07015378574057       -7.65525886866691
H           -7.37207657336683       -0.49307708486911       -7.66228366607058
H           -5.83004269603029       -0.51800208174046       -7.66064038027146
O            3.75165956334043        4.06006000810573       -8.66810209125668
H            2.96966369564270        3.49942669815798       -8.65598041028822
H            4.51071643492555        3.46846999799987       -8.65691334555694
O           -0.12659035909864       -2.77494373118053       -9.66368934559116
H           -0.90772050721377       -3.33700682147320       -9.65981265497753
H            0.63428622339077       -3.36420983035326       -9.65920180993654
82
 energy: -147.132129270339 gnorm: 0.030558438541 xtb: 6.6.0 (conda-forge)
C            0.98490000000009       -0.90610000000009       -0.14630000000011
C            1.98991341286582        0.12914714416879        0.23587861751279
O            2.62464800099105        0.81777734440503       -0.54525950215143
O            2.20797398006586        0.18824072491068        1.53885157845030
C           -0.50125341230347       -0.49394866926951        0.28383696765943
C           -1.11009617547561        0.48507722032493       -0.84694099751611
C           -0.42110880126128        1.80332072565480       -0.90244741944799
O            0.36611763150548        2.13493513332959       -1.76976665471241
O           -0.77513858518814        2.62512374106600        0.07436458844133
C           -1.34929640865670       -1.78775834086374        0.05968291313503
O           -2.20902855305473       -2.16034689907520        0.83163188917217
O           -1.08534108294001       -2.47224690957405       -1.05205837427227
O           -0.61987591992244       -0.04578713592365        1.50107858014907
H            1.20040220123584       -1.81116326234537        0.42079968432664
H            1.04236230241363       -1.08234649100196       -1.21804510177962
H            2.81735485418500        0.91379217540083        1.77645675883499
H           -2.14199765192888        0.63500295534194       -0.53311024717128
H           -1.04236452970242        0.01090265598652       -1.82480960101221
H           -0.30770025749259        3.47996744010669        0.01994680260834
H           -1.64381680170369       -3.27368969406369       -1.12124557657214
Na           7.00969853364678       -0.05642665932247       -0.12993864172831
Na          -7.00712595040204       -0.11517842815513       -0.10467997650099
O            3.14577514565815        0.34274238379247        9.36047049889527
H            2.35407474201848       -0.20410948048935        9.32088097832252
H            3.89974891961113       -0.25484475034980        9.32727123555563
O           -3.87070685544139       -3.21671229066487        8.36885953132293
H           -4.65057535218890       -3.78025209196716        8.32964830607128
H           -3.10370502554994       -3.79725127197910        8.31870400396442
O            0.59663114616871        6.92887800389498        7.34427524663847
H           -0.18852693439748        6.37273772522777        7.33391915462354
H            1.35722724319251        6.33961496727150        7.33787133001355
O            4.64863744829264       -5.68832468934058        6.34242554528116
H            3.85605670996961       -6.23402164256175        6.33360506238301
H            5.40283514437578       -6.28593357722484        6.34164270732771
O           -8.20476817479828        1.79072817293947        5.28311033877221
H           -8.98562748213124        1.22866378441279        5.34874029367343
H           -7.43748841217309        1.21061613213956        5.35567948662151
O            7.55402580968135        5.13098658665744        4.31640232800037
H            6.76554308113560        4.57949945862318        4.34981911450373
H            8.31334972424858        4.53989479315115        4.34535192654677
O           -2.41409852242328       -8.70724903780834        3.33669093807560
H           -3.19852157704247       -9.26488315345073        3.34176451343912
H           -1.65135482765972       -9.29381168265570        3.33975093096473
O           -4.44590532991164        8.93307753683204        2.33943974406776
H           -5.22963841923697        8.37468363733986        2.33682481915919
H           -3.68324414343778        8.34661001607492        2.34151070131106
O            9.22556972845002       -3.02894187859963        1.26667814136719
H            8.51474341438303       -3.67988549582961        1.39222288727459
H           10.05382420830613       -3.53262186196671        1.32708949414671
O           -9.13819664584876       -3.44250091730977        0.31986393313177
H           -9.98188118436393       -3.91947253022205        0.33415191607407
H           -8.44868928818931       -4.11752594204039        0.35571574883265
O            4.25334199482538        9.38754704026268       -0.66057931724118
H            3.46577301028208        8.83483497744738       -0.66362659851954
H            5.01202808720492        8.79572401569385       -0.65947591593746
O            2.98125065835434       -9.09258811455597       -1.66635909014374
H            2.19272943032713       -9.64411021575088       -1.65868298011661
H            3.73931776630406       -9.68521930532909       -1.65992538164687
O           -8.36257756067486        5.19414983005766       -2.63240519260621
H           -9.14204714640712        4.62974946739603       -2.66901575187865
H           -7.59269013602577        4.61678822416555       -2.68465276284001
O            9.16420654865069        2.34624525390522       -3.56885905148719
H            8.38107864672402        1.79834180245188       -3.77552857526154
H            9.92686312554593        1.76181208134798       -3.68207252807003
O           -5.11873773653600       -6.96266803106651       -4.65724438193544
H           -5.90215774891232       -7.52140266380695       -4.66350377907786
H           -4.35536123654640       -7.54811770438943       -4.65965288454972
O           -1.05549212818042        8.62285150671328       -5.66544217794381
H           -1.83924743089723        8.06472119218753       -5.65724077363409
H           -0.29272587939136        8.03633404989617       -5.66071149192285
O            5.83315793418027       -4.55464863763895       -6.66577045214887
H            5.04382710891204       -5.10487323637009       -6.64977646157026
H            6.59038949620445       -5.14826819341457       -6.66061742087603
O           -6.59300243708066        0.06749850773738       -7.64658556530213
H           -7.37400097526729       -0.49469370892246       -7.66399654114613
H           -5.82667939318871       -0.51429732171479       -7.66033741008360
O            3.75142514015871        4.05732865920169       -8.67914004979519
H            2.96594997447781        3.50179303851264       -8.64892840394335
H            4.51199103312354        3.46801607832171       -8.65125641218030
O           -0.12751391371144       -2.77706335663038       -9.66793848942194
H           -0.91021758394352       -3.33665697695642       -9.65774256843329
H            0.63704654224852       -3.36135454209069       -9.65634729717223
82
 energy: -147.133823207180 gnorm: 0.033356968227 xtb: 6.6.0 (conda-forge)
C            0.98490000000019       -0.90610000000016       -0.14630000000021
C            1.99748530733983        0.10597612060423        0.24409526262562
O            2.64564162596130        0.81199541755291       -0.51884080424396
O            2.17322894893714        0.16135927189094        1.55736887153371
C           -0.49885994598742       -0.47063635358811        0.30772856330863
C           -1.11318817836505        0.48069334010312       -0.86129508652304
C           -0.42899311693167        1.79378330108536       -0.91408082660209
O            0.38518559220441        2.13410443472533       -1.76263362925368
O           -0.79608608967439        2.60442758226145        0.07171583788778
C           -1.35123554964672       -1.76092980339266        0.06342587064086
O           -2.26038530398362       -2.12699385602723        0.79701565457200
O           -1.04437881044295       -2.43231867728846       -1.04337224088698
O           -0.60477562866940        0.00658656528768        1.50698352418338
H            1.18628112465030       -1.81339960505872        0.42255038733820
H            1.00954408297316       -1.08510106676754       -1.21907538918279
H            2.75876083952914        0.90621935439222        1.79934724034517
H           -2.14347610157934        0.63648630266648       -0.54633223339904
H           -1.03550833852173       -0.02692689257640       -1.82104872821296
H           -0.30841970091208        3.44997418649228        0.02404381770921
H           -1.61773334813730       -3.22239597609582       -1.12890302338996
Na           7.04793152112255       -0.07993108561604       -0.10313531015135
Na          -7.05218467105902       -0.19064359095865       -0.05314360775117
O            3.15081360087794        0.34111473674479        9.38121584813320
H            2.34995546739241       -0.19184526992565        9.30399731782550
H            3.89936282744627       -0.26268904308722        9.31526331528393
O           -3.87470072530862       -3.21899046148984        8.39735522056813
H           -4.65241629704644       -3.78442870394156        8.31939888603748
H           -3.10129799905906       -3.78956984270172        8.30018024377489
O            0.59750672848056        6.92493283766604        7.35055587316261
H           -0.19136208543768        6.37379460698218        7.32851298624001
H            1.35907396339827        6.33675873901677        7.33623315771349
O            4.65553089043077       -5.68939933584650        6.34600288626864
H            3.85243643901161       -6.22044995252327        6.32798667911333
H            5.40346037197954       -6.29498774270459        6.34407822628185
O           -8.20291442476270        1.78246721802114        5.23917429770973
H           -8.98192708453050        1.22106140551261        5.35435580518268
H           -7.43041830025674        1.21292658932719        5.36401214979623
O            7.55530943144646        5.12518623553204        4.29457924015667
H            6.76127623514725        4.58222185769493        4.35963868057348
H            8.31344135654911        4.53310912127779        4.35167680390158
O           -2.41449751874528       -8.71138408417745        3.33455695791360
H           -3.20120411536512       -9.26592589494858        3.34436688493930
H           -1.64918009502793       -9.29477177477387        3.34048197773583
O           -4.44656945229697        8.93001878666528        2.34061437836201
H           -5.23227337153420        8.37418348508530        2.33426091419348
H           -3.68105971201202        8.34702075508956        2.34368906321813
O            9.17197281183059       -3.01439340535124        1.28186539082631
H            8.49523919522930       -3.69336962256505        1.38164218232361
H           10.02542218970912       -3.47241601093479        1.28772823250542
O           -9.08329178903031       -3.41870050484828        0.31392118692886
H           -9.95714777699257       -3.84388075698957        0.32542158152025