21
 energy: -41.103406093548 gnorm: 11.316485131604 xtb: 6.6.0 (conda-forge)
C            0.98490000000000       -0.90610000000000       -0.14630000000000
C            1.98910000000000        0.13430000000000        0.26100000000000
O            2.57510000000000        0.82640000000000       -0.61360000000000
O            2.30710000000000        0.30580000000000        1.60500000000000
C           -0.49910000000000       -0.54820000000000        0.17210000000000
C           -1.11270000000000        0.47020000000000       -0.83490000000000
C           -0.44530000000000        1.81430000000000       -0.87050000000000
O            0.34750000000000        2.09960000000000       -1.80750000000000
O           -0.72680000000000        2.76110000000000        0.10970000000000
C           -1.31120000000000       -1.81980000000000        0.04520000000000
O           -2.13830000000000       -2.14390000000000        0.94080000000000
O           -1.18240000000000       -2.61960000000000       -1.08840000000000
O           -0.63030000000000       -0.09300000000000        1.50200000000000
H            1.26010000000000       -1.84190000000000        0.38880000000000
H            1.09530000000000       -1.11580000000000       -1.23350000000000
H            2.99040000000000        0.99570000000000        1.89330000000000
H           -2.18310000000000        0.63270000000000       -0.57990000000000
H           -1.09070000000000        0.03920000000000       -1.86090000000000
H           -0.28820000000000        3.67400000000000        0.09130000000000
H           -1.73090000000000       -3.46470000000000       -1.19360000000000
Na           0.00000000000000        0.00000000000000        0.00000000000000
21
 energy: -44.437052992056 gnorm: 1.192184451670 xtb: 6.6.0 (conda-forge)
C            0.98490000000000       -0.90610000000000       -0.14630000000000
C            1.99416584883984        0.13694117362022        0.26071512524622
O            2.57381997744527        0.82525879172822       -0.61158443288162
O            2.30665783022026        0.30558062314134        1.60242405329067
C           -0.70104904008447       -0.76453143840187        0.24331597394632
C           -1.12622306669059        0.47920608579691       -0.84600113507449
C           -0.44344021254251        1.81947624428535       -0.87264197404874
O            0.34519463019773        2.09942025564538       -1.80508037350475
O           -0.72666162750292        2.75934190297794        0.10850231610223
C           -1.31740820385144       -1.82593225478450        0.04767707806384
O           -2.13600697620560       -2.14411042626235        0.93824228114882
O           -1.18227538012597       -2.61846613145448       -1.08685504717747
O           -0.63219676773995       -0.09378823008189        1.50378980053932
H            1.25935959183397       -1.84144512242504        0.38848428511465
H            1.09510196958116       -1.11565499092046       -1.23312756667931
H            2.98957060548059        0.99509757278572        1.89203705720399
H           -2.18257793628142        0.63289956595694       -0.57942857585059
H           -1.09091083865609        0.03948731081217       -1.86050329702489
H           -0.28898543618321        3.67244442299829        0.09118218006308
H           -1.72998074678054       -3.46346741261387       -1.19304997905138
Na           0.18367831348158        0.22649857059491       -0.05539535640072
21
 energy: -44.674874172359 gnorm: 0.863541038168 xtb: 6.6.0 (conda-forge)
C            0.98490000000000       -0.90610000000000       -0.14630000000000
C            2.03563399979454        0.13589660012910        0.26406141016689
O            2.57617554547484        0.82388716871308       -0.59250596909336
O            2.30218518680204        0.29979310300792        1.58445699963517
C           -0.73267990648820       -0.69463849548379        0.26494766741123
C           -1.19653879973960        0.54726424652700       -0.87332923263139
C           -0.47819059050028        1.87628706042799       -0.90347636756594
O            0.32876886828793        2.11306675121972       -1.79233537350490
O           -0.73613072802771        2.75159019231474        0.09687748473332
C           -1.39005322570422       -1.90354512605110        0.05398475226313
O           -2.17552690758193       -2.21420816981135        0.93252522733473
O           -1.18704435699394       -2.62489304162293       -1.07996330807236
O           -0.65594735785094       -0.05165272985771        1.50675034550745
H            1.24634378529624       -1.83833954708368        0.38394967576001
H            1.08941724582766       -1.11077329073381       -1.22691251793928
H            2.97300130822502        0.98839417053732        1.87205255594155
H           -2.21950554048199        0.65698392821186       -0.58410567353167
H           -1.10992759566804        0.05529138801367       -1.85965544433924
H           -0.29772829032019        3.65086899970145        0.08252655330912
H           -1.71793036113399       -3.45696944639834       -1.18828127639706
Na           0.17035509102977        0.34597516054302       -0.03672316473062
21
 energy: -44.862218039413 gnorm: 0.529577814285 xtb: 6.6.0 (conda-forge)
C            0.98490000000000       -0.90610000000000       -0.14630000000000
C            2.07987763819904        0.12864046838952        0.27396613685880
O            2.57954535358638        0.82201279087946       -0.57193351674026
O            2.29449345432259        0.28190175431959        1.56747930260345
C           -0.76194275952573       -0.63601045453838        0.29383825884731
C           -1.28620515992037        0.60250673962276       -0.91365923969775
C           -0.52624504806895        1.93678251676144       -0.94388165449516
O            0.31818437985327        2.12552682045859       -1.78207916068481
O           -0.74828616256558        2.73865328704810        0.08255599348251
C           -1.42435019683975       -1.92395864881999        0.05804513618627
O           -2.18126003444096       -2.24354768242816        0.92096498996855
O           -1.18014242511083       -2.59383236204700       -1.05919795479347
O           -0.68979126775918       -0.06019702753753        1.49853167021967
H            1.23126912045713       -1.83665493133403        0.37600103175638
H            1.08570983309576       -1.09531108736671       -1.21954774415984
H            2.95482917452391        0.96919497223476        1.84922795119810
H           -2.27297932713128        0.65626689733248       -0.59029024605559
H           -1.12029101834175        0.06290815323110       -1.86038062093437
H           -0.30316919258658        3.62268766334618        0.06904322075218
H           -1.70299992066396       -3.42205836459501       -1.16925822686816
Na           0.17624065732956        0.50282419048020        0.00040486927968
21
 energy: -44.978899285591 gnorm: 0.315908812374 xtb: 6.6.0 (conda-forge)
C            0.98490000000000       -0.90610000000000       -0.14630000000000
C            2.11113812319515        0.11020630111973        0.28016132297081
O            2.59380382070785        0.82573767201570       -0.56590035976091
O            2.28823707539080        0.25636014333712        1.56302729660759
C           -0.77501423030593       -0.58689371308921        0.32612806760800
C           -1.35483022820401        0.64356182665514       -0.95233547853315
C           -0.59010288601650        1.98979763885809       -0.99830428350615
O            0.31292738080955        2.14079090104871       -1.79270826840690
O           -0.77259781170771        2.73625275369510        0.06925892307686
C           -1.46197401362945       -1.92865568155916        0.05706907659655
O           -2.21012684126819       -2.29611752392871        0.92362202438403
O           -1.17733393356599       -2.56672940667165       -1.04807518366514
O           -0.72338850697606       -0.08431697895324        1.48579036175272
H            1.20984398458042       -1.83903587496896        0.37174213999899
H            1.08010899762669       -1.07885799816892       -1.21619207183378
H            2.94141309509941        0.94919496209225        1.82918845860785
H           -2.34010492294891        0.65459737201190       -0.59116609286522
H           -1.12994631425028        0.07364672142773       -1.85997355798543
H           -0.30546909083521        3.60352612216255        0.05428492657796
H           -1.68932866890086       -3.40100672644396       -1.15792782139644
Na           0.20366498192442        0.66628288977507        0.04741492813659
21
 energy: -45.043387296686 gnorm: 0.212553091173 xtb: 6.6.0 (conda-forge)
C            0.98490000000000       -0.90610000000001       -0.14630000000000
C            2.12192723294214        0.08220356379323        0.27869860329448
O            2.61558220089028        0.81774318241748       -0.55348647418271
O            2.28250540463690        0.22165385065312        1.56681827125952
C           -0.77525689994008       -0.54676195035538        0.35574828942138
C           -1.40323797694920        0.67362518251020       -0.98448419960950
C           -0.66627424519687        2.02125858563483       -1.05466714440857
O            0.27040397703827        2.16609315611523       -1.81502422066518
O           -0.81517980994758        2.74075737928243        0.05032372051869
C           -1.48667254777600       -1.91643164713738        0.06139374426112
O           -2.23582148012889       -2.32911099194928        0.91270847755523
O           -1.17862781669803       -2.53129565007439       -1.04386332478680
O           -0.75342060665457       -0.09571295104282        1.48767563831721
H            1.18376384654410       -1.84346858050861        0.37173510197853
H            1.07118101183167       -1.06385819908219       -1.21732402813342
H            2.93254373068479        0.92184015238622        1.81297966619127
H           -2.39547727040113        0.65818435975890       -0.60121640819355
H           -1.15227007149433        0.08882043703827       -1.86180440689763
H           -0.31346357647911        3.58857168552625        0.03395652843997
H           -1.67239607468704       -3.37810568075993       -1.15364529393270
Na           0.24152412516144        0.82105009893362        0.09888811103219
21
 energy: -45.085193911288 gnorm: 0.152648496493 xtb: 6.6.0 (conda-forge)
C            0.98490000000000       -0.90610000000001       -0.14630000000000
C            2.11472958762805        0.04707754908271        0.27185695019071
O            2.63866401702300        0.79819634582435       -0.53398221583955
O            2.27664408349533        0.17668831392923        1.57178123066262
C           -0.76603656550568       -0.51375518211611        0.38047177715832
C           -1.43795143479791        0.69702401894850       -1.00865112426845
C           -0.74180247309271        2.02934608907403       -1.09821248241446
O            0.20179167859576        2.20067635040794       -1.84406060134393
O           -0.87902425973565        2.75081554086682        0.02383820012389
C           -1.50260783359879       -1.88935120897989        0.06738200566191
O           -2.25844489451899       -2.34238185390472        0.89520844384227
O           -1.17796640235149       -2.48662354090594       -1.04664121231017
O           -0.77734766322270       -0.08536421579676        1.51432796560359
H            1.15349245785995       -1.84808400690494        0.37323016613589
H            1.05662069809624       -1.04983506048423       -1.22040175237385
H            2.92829687635004        0.88018279425837        1.79684442129501
H           -2.43851021701498        0.66959330981638       -0.62095167314404
H           -1.18579941578541        0.10335499941511       -1.86954498427903
H           -0.34020744020758        3.57660793076202        0.00061586810108
H           -1.64861835869566       -3.34727123384717       -1.15804879944295
Na           0.28567013620816        0.96862251773407        0.15447903063856
21
 energy: -45.115278541464 gnorm: 0.101699530816 xtb: 6.6.0 (conda-forge)
C            0.98490000000000       -0.90610000000002       -0.14630000000000
C            2.09371053023657        0.00972294218648        0.26470670420891
O            2.65315789687115        0.77249879950926       -0.51003086088542
O            2.27272299928143        0.12402000274691        1.57607525933446
C           -0.74792517150101       -0.48717221813533        0.40022856919219
C           -1.46368769201228        0.71285862944931       -1.02748190769106
C           -0.80849218553747        2.01869296528858       -1.12351572067382
O            0.12742489174448        2.24125885221311       -1.87257722043926
O           -0.96049984091759        2.76853328521022       -0.00720514635491
C           -1.50390574192947       -1.85516766584945        0.07517105800369
O           -2.27351666206066       -2.33241475891737        0.87302085047139
O           -1.17392352803641       -2.43486704488089       -1.05152979023882
O           -0.79909435150243       -0.06343001587706        1.54877741979284
H            1.11898420899981       -1.85261714853762        0.37382471645633
H            1.03419775886054       -1.03530428024602       -1.22385476345466
H            2.93335071361716        0.82270460301838        1.77997165823520
H           -2.47270910466186        0.68138053088258       -0.64656717841422
H           -1.22600072850973        0.11017770860386       -1.88537677421493
H           -0.39234542334831        3.57247316919957       -0.04737871387180
H           -1.62665798256468       -3.30250104686607       -1.16799704820856
Na           0.33750426745819        1.11774158169660        0.21515385898419
21
 energy: -45.134587823054 gnorm: 0.080770283873 xtb: 6.6.0 (conda-forge)
C            0.98490000000001       -0.90610000000002       -0.14630000000000
C            2.07207766907062       -0.02012854326176        0.26222264622088
O            2.65766010468541        0.75025308184832       -0.48635570031270
O            2.27271777728304        0.06849064534126        1.58244222892356
C           -0.72197593446202       -0.46728106409293        0.41473942151553
C           -1.47953468976960        0.71794201104925       -1.03939769851196
C           -0.85577106883549        2.00187262939825       -1.13325931754058
O            0.05270864755326        2.28580893867517       -1.90251659079432
O           -1.04737786297808        2.79416410578889       -0.04120537019086
C           -1.49731022281411       -1.81176816082446        0.08042361507593
O           -2.28006307806283       -2.30017386188529        0.85542837673387
O           -1.16488295220338       -2.37525152300295       -1.05862493326390
O           -0.81254611151826       -0.03587278177611        1.57113163278599
H            1.08418425278844       -1.85670271180601        0.37371724780520
H            1.00351655939961       -1.02335460103129       -1.22628011250944
H            2.95264560695233        0.74839388200854        1.77347670129029
H           -2.49398099914809        0.68683922002282       -0.66634055842681
H           -1.26953717176417        0.10746352068538       -1.90287935956577
H           -0.47654413206489        3.58679812213097       -0.11347599847563
H           -1.60925733716909       -3.24232668081853       -1.18688737538868
Na           0.39348176852948        1.25635708292826        0.27293532533366
21
 energy: -45.147511878178 gnorm: 0.079933548580 xtb: 6.6.0 (conda-forge)
C            0.98490000000001       -0.90610000000003       -0.14630000000000
C            2.05889934400560       -0.03538245977008        0.26665049075458
O            2.65419450638637        0.74481713185423       -0.46260875984386
O            2.27770998870298        0.01566257624775        1.59186995817434
C           -0.68985680523839       -0.45415220679058        0.42446317111915
C           -1.48771054213088        0.70936112918554       -1.04453510643311
C           -0.88772885960926        1.98849727817118       -1.13833987409911
O           -0.01119289246815        2.32481677958586       -1.93204260720700
O           -1.12720628775992        2.82048518006341       -0.07493403047046
C           -1.48172505784369       -1.76570588306125        0.08425475106100
O           -2.28159095108935       -2.25065539090739        0.84158627191080
O           -1.15534592871415       -2.31298574814394       -1.06730218184223
O           -0.81241758138402       -0.00422032382173        1.57833241455901
H            1.05417699263189       -1.85944158411632        0.37299868671993
H            0.96796399752249       -1.01538130923842       -1.22681529592331
H            2.98435296276642        0.66493732083597        1.78330656350410
H           -2.50372405657808        0.67996410152320       -0.67196878902689
H           -1.31305090400505        0.09443202051088       -1.91689471610804
H           -0.57908198458658        3.61834648553355       -0.18843409661366
H           -1.60438862328150       -3.17157183878500       -1.21458633019332
Na           0.45084347318817        1.37918718109389        0.32389975255320
21
 energy: -45.158546087384 gnorm: 0.076509568237 xtb: 6.6.0 (conda-forge)
C            0.98490000000001       -0.90610000000003       -0.14630000000000
C            2.05499414341253       -0.03850110931379        0.27871953579863
O            2.64266143199817        0.75943140265222       -0.43479979333730
O            2.29059617584294       -0.03658794241528        1.60254337785273
C           -0.64935007491306       -0.44643041860738        0.42862000524904
C           -1.48692840521110        0.68865609249745       -1.04325091635349
C           -0.90735321236960        1.97627852338726       -1.14166502971014
O           -0.06353998106147        2.34862264400136       -1.95807952625518
O           -1.19269848273488        2.83733556972433       -0.10612704970054
C           -1.46053405696455       -1.71521628627621        0.08202482129231
O           -2.27943217962874       -2.19011512764080        0.82785735895410
O           -1.14447804602123       -2.25483798181792       -1.07726207635696
O           -0.79645349534389        0.03269322266054        1.57162396991091
H            1.03036253210589       -1.86195879544538        0.36982231880686
H            0.93107188386498       -1.00872455062933       -1.22516780278655
H            3.02641928881702        0.57625792420079        1.80624754298551
H           -2.50058322995792        0.66367900105298       -0.66171386569461
H           -1.35231790354469        0.07625114402770       -1.92716396062151
H           -0.69199139950842        3.65825758154020       -0.27015615550406
H           -1.61012486772951       -3.09945595666639       -1.24486268110956
Na           0.51442483652432        1.49575047666934        0.37131550715833
21
 energy: -45.169501050284 gnorm: 0.067225846628 xtb: 6.6.0 (conda-forge)
C            0.98490000000001       -0.90610000000004       -0.14630000000000
C            2.05681239088974       -0.03388978578901        0.29730525386903
O            2.61680263158041        0.79514386236520       -0.40126980312141
O            2.30978917693289       -0.09347035823392        1.60959537338627
C           -0.59579825673347       -0.44410343263884        0.42427193892711
C           -1.47365856809142        0.65502658597064       -1.03565756201039
C           -0.91427964646661        1.96024704038071       -1.14377459730307
O           -0.09636025561448        2.34937207616522       -1.97658226952887
O           -1.23753834832122        2.83449533275882       -0.13143894335383
C           -1.42946474540336       -1.66455842148949        0.07365864580371
O           -2.27542362780144       -2.11630456966048        0.80998210433289
O           -1.13195800454185       -2.21080196334104       -1.08738113935898
O           -0.76086948617955        0.07659323444189        1.54856760591336
H            1.01597025713010       -1.86607386514128        0.36145741063659
H            0.89742160848279       -1.00028289912816       -1.22152987238032
H            3.06519309828586        0.48714528163187        1.83417092842993
H           -2.48104436566544        0.63940936853474       -0.63447418898112
H           -1.38212586993757        0.05594223097372       -1.93506033985216
H           -0.81335379909970        3.69509168034176       -0.35103405631057
H           -1.63146249187450       -3.03289640764955       -1.26971080299604
Na           0.59215276530910        1.61794572609898        0.41930546858102
21
 energy: -45.179717656836 gnorm: 0.060623013004 xtb: 6.6.0 (conda-forge)
C            0.98490000000001       -0.90610000000005       -0.14630000000000
C            2.06092132254679       -0.02389487596393        0.31963953602506
O            2.57411671238080        0.84764658347172       -0.36482129704259
O            2.33896743651864       -0.15087154990085        1.60899742722267
C           -0.53248609767697       -0.44738707353321        0.40711056435430
C           -1.44442496300244        0.61126150282708       -1.02368306144293
C           -0.90375283970913        1.93839767512070       -1.14564212497742
O           -0.09921136804444        2.32407555517926       -1.98625367920516
O           -1.25978005823162        2.80823445951195       -0.15314992842004
C           -1.39774256060711       -1.62166166978520        0.05804240814977
O           -2.27697263550008       -2.03563434390482        0.78794917695861
O           -1.11609332171755       -2.19627150273900       -1.09505672657341
O           -0.70412117753312        0.12588346276220        1.50726866706645
H            1.01907992155468       -1.87315458396021        0.34703156154261
H            0.87889799694180       -0.99023748030998       -1.21777148659288
H            3.10002591351798        0.41043903122901        1.85949935687806
H           -2.44212968013723        0.61088694976190       -0.59453598397535
H           -1.39164397371147        0.03629200442315       -1.94113082834664
H           -0.92513016702901        3.70808636324271       -0.40474539651123
H           -1.66515190273329       -2.98805938783554       -1.27955747253377
Na           0.67973110223557        1.73576110015455        0.46167298635941
21
 energy: -45.188132955207 gnorm: 0.058224071065 xtb: 6.6.0 (conda-forge)
C            0.98490000000001       -0.90610000000005       -0.14630000000000
C            2.06246133828899       -0.01174499401256        0.34169972879042
O            2.52038661459318        0.90778044383139       -0.32465823352124
O            2.37723980526826       -0.20764809370305        1.60131525169557
C           -0.46928556744753       -0.45481439556947        0.37866354958529
C           -1.40374902864597        0.56386803516067       -1.00937186899089
C           -0.87980517610497        1.91155280491582       -1.14517626330262
O           -0.07342109801438        2.28197923517817       -1.98537626842674
O           -1.27073334003689        2.77017163589936       -0.17527720466061
C           -1.37237597883644       -1.59804755720514        0.04271333915800
O           -2.28678694157071       -1.95921330012770        0.76640154684243
O           -1.09797370872266       -2.21772333624944       -1.09388794334021
O           -0.63258229873196        0.17334202002802        1.45489630548058
H            1.04477611882959       -1.88349436248012        0.32647867052062
H            0.88545123226835       -0.97886000421659       -1.21780899689341
H            3.12965088166053        0.35147287783491        1.88086737998009
H           -2.38991785287254        0.58021587480311       -0.55101927092180
H           -1.37749990502719        0.01744241636383       -1.94371034594953
H           -0.99798393450534        3.68625059112897       -0.41828428049160
H           -1.70251534880823       -2.97384047614384       -1.26933366855652
Na           0.76531702113509        1.83602028098932        0.49372880939390
21
 energy: -45.194256526675 gnorm: 0.055813395370 xtb: 6.6.0 (conda-forge)
C            0.98490000000001       -0.90610000000005       -0.14630000000000
C            2.06111389793755       -0.00568404534594        0.36088180875964
O            2.47686477359761        0.95219318110360       -0.27817453283569
O            2.42098399366111       -0.26459912071424        1.59123432960639
C           -0.42079061147706       -0.45960726873462        0.34856716419568
C           -1.36023483017483        0.52922500290078       -0.99170965455677
C           -0.84572248190148        1.88673921644654       -1.13200275022005
O           -0.02779754817945        2.24478520158650       -1.96619651738131
O           -1.27470514357970        2.73644558005988       -0.18571387084706
C           -1.35945282989755       -1.59539354852640        0.03838018495674
O           -2.29877168949136       -1.90416213501534        0.75474333019279
O           -1.08379123779245       -2.25931063906445       -1.07933609836297
O           -0.55935367757830        0.20922327982824        1.40968798474807
H            1.08701198599789       -1.89636937311547        0.30024239322689
H            0.91909078129146       -0.96562146091524       -1.22430826312431
H            3.15627081647135        0.30564741708593        1.89933449866727
H           -2.33559870178315        0.55796908659993       -0.51210762363245
H           -1.34301168295371        0.00621896955093       -1.93751875663125
H           -1.05638430302312        3.66617110504433       -0.43000053597011
H           -1.72755327093833       -2.98444825704278       -1.24274626585694
Na           0.83307158128057        1.90618652307375        0.51498253885328
21
 energy: -45.199162943145 gnorm: 0.052645129393 xtb: 6.6.0 (conda-forge)
C            0.98490000000001       -0.90610000000005       -0.14630000000000
C            2.05859779161405       -0.00757928900810        0.37410640829847
O            2.45609703603383        0.97394133489335       -0.23042569467617
O            2.46032285938179       -0.31196080287250        1.57893035285313
C           -0.39730397427434       -0.45754878001375        0.32212118357840
C           -1.32183216552798        0.51134257087982       -0.97604563608751
C           -0.81035852228058        1.86835528685098       -1.11323639678039
O            0.03124108867283        2.21926253162711       -1.92987971066858
O           -1.28043610019017        2.71527659737781       -0.18944522860045
C           -1.35339485258991       -1.61393563777769        0.05628654208609
O           -2.30534338564680       -1.88186075916196        0.76271748542395
O           -1.07636509698610       -2.30263381248515       -1.04936677513493
O           -0.49709210885761        0.23419027761826        1.38107415917846
H            1.13552959158508       -1.90591549437144        0.27416325414681
H            0.97595408640934       -0.95424374991658       -1.23341114244265
H            3.17394358827653        0.27766300976087        1.90970550854375
H           -2.29045566382666        0.54364926463085       -0.48927989653871
H           -1.29405520660162       -0.00434090252843       -1.92434462626554
H           -1.08575279756671        3.64211028189785       -0.42363575286972
H           -1.73865228916005       -3.00514193537734       -1.21214641683249
Na           0.87108879101132        1.93859253251632        0.52218154375728
21
 energy: -45.203226761515 gnorm: 0.056100626607 xtb: 6.6.0 (conda-forge)
C            0.98490000000001       -0.90610000000005       -0.14630000000000
C            2.05685778832096       -0.01921191201718        0.38788872186603
O            2.44478244703989        0.99689587637924       -0.17195136856531
O            2.49956178729839       -0.37259779972620        1.57258875714508
C           -0.39229263671843       -0.44630292687066        0.30375766485171
C           -1.28779523722360        0.50773591315189       -0.95521198583080
C           -0.77599164260325        1.85674246137030       -1.08165915457794
O            0.08924897196013        2.21398159894105       -1.87343631953126
O           -1.28634104927943        2.70871226217021       -0.18057270322617
C           -1.35589502260312       -1.63794439183611        0.09461142683117
O           -2.31528922152159       -1.87794578182593        0.78804610918191
O           -1.06852972129252       -2.34109114803111       -0.99849652593625
O           -0.44218448111124        0.25235886198793        1.37460701446313
H            1.17822133844208       -1.91203157408482        0.24713926884380
H            1.04314059859445       -0.93889963991105       -1.24158109191948
H            3.18707847934801        0.23993117573962        1.92320296905419
H           -2.25635572743445        0.53383915566192       -0.47431637263271
H           -1.23813619786246       -0.01574497538456       -1.89987203904815
H           -1.12645673464168        3.64521913095568       -0.43911592672307
H           -1.73802618649769       -3.02811966576807       -1.17431714971812
Na           0.89055611943803        1.95476128386234        0.52868636541763
21
 energy: -45.205720631733 gnorm: 0.060009494259 xtb: 6.6.0 (conda-forge)
C            0.98490000000001       -0.90610000000006       -0.14630000000000
C            2.05542268215916       -0.03369610374160        0.40201444373681
O            2.45627082196167        0.98400960459375       -0.12080202825719
O            2.51810052752548       -0.40564093458651        1.56616456335659
C           -0.40176656596505       -0.43082051337900        0.29204853412584
C           -1.26451370202028        0.50551026840685       -0.93996140288911
C           -0.75922804188814        1.85258449812332       -1.05494964743576
O            0.13445109800643        2.22168677335689       -1.81040727099671
O           -1.30411556193876        2.70832217714319       -0.16895365838690
C           -1.36024761883192       -1.65691871513681        0.13796314588462