81
 energy: -146.869698475987 gnorm: 0.206442654245 xtb: 6.6.0 (conda-forge)
C            0.98490000000000       -0.90610000000000       -0.14630000000000
C            1.98910000000000        0.13430000000000        0.26100000000000
O            2.57510000000000        0.82640000000000       -0.61360000000000
O            2.30710000000000        0.30580000000000        1.60500000000000
C           -0.49910000000000       -0.54820000000000        0.17210000000000
C           -1.11270000000000        0.47020000000000       -0.83490000000000
C           -0.44530000000000        1.81430000000000       -0.87050000000000
O            0.34750000000000        2.09960000000000       -1.80750000000000
O           -0.72680000000000        2.76110000000000        0.10970000000000
C           -1.31120000000000       -1.81980000000000        0.04520000000000
O           -2.13830000000000       -2.14390000000000        0.94080000000000
O           -1.18240000000000       -2.61960000000000       -1.08840000000000
O           -0.63030000000000       -0.09300000000000        1.50200000000000
H            1.26010000000000       -1.84190000000000        0.38880000000000
H            1.09530000000000       -1.11580000000000       -1.23350000000000
H            2.99040000000000        0.99570000000000        1.89330000000000
H           -2.18310000000000        0.63270000000000       -0.57990000000000
H           -1.09070000000000        0.03920000000000       -1.86090000000000
H           -0.28820000000000        3.67400000000000        0.09130000000000
H           -1.73090000000000       -3.46470000000000       -1.19360000000000
Li           6.98890500000000       -0.03998500000000       -0.16099500000000
O            3.47287200000000        0.35775800000000        9.33900500000000
H            2.69822500000000       -0.22437800000000        9.33900500000000
H            4.22488700000000       -0.25333500000000        9.33900500000000
O           -3.53395900000000       -3.20060700000000        8.33900500000000
H           -4.30860600000000       -3.78274400000000        8.33900500000000
H           -2.78194400000000       -3.81170100000000        8.33900500000000
O            0.92864000000000        6.94681100000000        7.33900500000000
H            0.15399200000000        6.36467400000000        7.33900500000000
H            1.68065500000000        6.33571700000000        7.33900500000000
O            4.97410800000000       -5.67308500000000        6.33900500000000
H            4.19946100000000       -6.25522200000000        6.33900500000000
H            5.72612300000000       -6.28417900000000        6.33900500000000
O           -7.87360600000000        1.81246500000000        5.33900500000000
H           -8.64825300000000        1.23032800000000        5.33900500000000
H           -7.12159100000000        1.20137100000000        5.33900500000000
O            7.88534900000000        5.15089300000000        4.33900500000000
H            7.11070100000000        4.56875700000000        4.33900500000000
H            8.63736400000000        4.53980000000000        4.33900500000000
O           -2.08147000000000       -8.68857500000000        3.33900500000000
H           -2.85611700000000       -9.27071100000000        3.33900500000000
H           -1.32945500000000       -9.29966800000000        3.33900500000000
O           -4.11234000000000        8.95044100000000        2.33900500000000
H           -4.88698700000000        8.36830400000000        2.33900500000000
H           -3.36032500000000        8.33934700000000        2.33900500000000
O            9.63731100000000       -3.03381600000000        1.33900500000000
H            8.86266400000000       -3.61595300000000        1.33900500000000
H           10.38932600000000       -3.64491000000000        1.33900500000000
O           -8.88152100000000       -3.45303300000000        0.33900500000000
H           -9.65616800000000       -4.03517000000000        0.33900500000000
H           -8.12950600000000       -4.06412700000000        0.33900500000000
O            4.58353100000000        9.40377200000000       -0.66099500000000
H            3.80888400000000        8.82163600000000       -0.66099500000000
H            5.33554600000000        8.79267900000000       -0.66099500000000
O            3.30935100000000       -9.07592900000000       -1.66099500000000
H            2.53470300000000       -9.65806500000000       -1.66099500000000
H            4.06136600000000       -9.68702200000000       -1.66099500000000
O           -8.02699900000000        5.21261600000000       -2.66099500000000
H           -8.80164600000000        4.63048000000000       -2.66099500000000
H           -7.27498400000000        4.60152300000000       -2.66099500000000
O            9.49938000000000        2.36914200000000       -3.66099500000000
H            8.72473300000000        1.78700500000000       -3.66099500000000
H           10.25139500000000        1.75804800000000       -3.66099500000000
O           -4.78569700000000       -6.94777300000000       -4.66099500000000
H           -5.56034400000000       -7.52990900000000       -4.66099500000000
H           -4.03368200000000       -7.55886600000000       -4.66099500000000
O           -0.72290300000000        8.64015400000000       -5.66099500000000
H           -1.49755000000000        8.05801800000000       -5.66099500000000
H            0.02911200000000        8.02906000000000       -5.66099500000000
O            6.16120200000000       -4.53961500000000       -6.66099500000000
H            5.38655500000000       -5.12175100000000       -6.66099500000000
H            6.91321700000000       -5.15070800000000       -6.66099500000000
O           -6.25835700000000        0.08446700000000       -7.66099500000000
H           -7.03300400000000       -0.49767000000000       -7.66099500000000
H           -5.50634200000000       -0.52662700000000       -7.66099500000000
O            4.08436300000000        4.07357800000000       -8.66099500000000
H            3.30971600000000        3.49144100000000       -8.66099500000000
H            4.83637900000000        3.46248400000000       -8.66099500000000
O            0.20614000000000       -2.76140800000000       -9.66099500000000
H           -0.56850700000000       -3.34354400000000       -9.66099500000000
H            0.95815500000000       -3.37250100000000       -9.66099500000000
81
 energy: -146.905278115504 gnorm: 0.091055297131 xtb: 6.6.0 (conda-forge)
C            0.98490000000000       -0.90609999999999       -0.14630000000000
C            1.98455952862563        0.14353482261189        0.24788046846015
O            2.58989458987940        0.81790413249992       -0.57960503346025
O            2.27634263907869        0.26593171248965        1.56284127299003
C           -0.50208126317849       -0.53913789709919        0.20149715769475
C           -1.10995955156327        0.48086993112599       -0.83257285868909
C           -0.42965673703526        1.81512145266749       -0.87971107368469
O            0.33811320860044        2.11880329895919       -1.78576902440174
O           -0.73572846383183        2.70813612802807        0.08969500982506
C           -1.33834098134186       -1.81478763361051        0.04708344757162
O           -2.13643949136708       -2.16845661279901        0.90081434480441
O           -1.16187650599284       -2.57372014435936       -1.06594138295670
O           -0.62615226753904       -0.09348413282385        1.48961261461107
H            1.23369282927304       -1.82817668693138        0.40083197776892
H            1.09096113280261       -1.09273199793216       -1.22378370250784
H            2.93195674287299        0.96488430918125        1.83413062244438
H           -2.16444889526877        0.62817395320879       -0.55472462731568
H           -1.06944877019859        0.05175294567507       -1.84493526851765
H           -0.29584463204246        3.59967002188689        0.05637550229350
H           -1.70628368901247       -3.40316990353132       -1.15393390699462
Li           6.99674955730568       -0.04629505004894       -0.15783553456830
O            3.47363000383588        0.35167026938964        9.34078267919781
H            2.69544835483418       -0.21899262985688        9.33686922648480
H            4.22690749871115       -0.25201418334016        9.33802757524948
O           -3.53425745108393       -3.20692387294308        8.34558397339184
H           -4.31116135847476       -3.77968269920670        8.33660744400601
H           -2.77939624033879       -3.80840155387156        8.33524105898351
O            0.92862809071391        6.94032136093267        7.33921948446830
H            0.15140731006111        6.36826318188744        7.33844181296290
H            1.68277826098159        6.33780436820101        7.33918436432450
O            4.97509142225681       -5.67921744859096        6.33792583687107
H            4.19681618893173       -6.24963004870883        6.33882830711702
H            5.72859927494737       -6.28262564639247        6.34014472384338
O           -7.87411552214169        1.80613422033120        5.34181946904205
H           -8.65017763599176        1.23213958603937        5.33747215820380
H           -7.11844354576787        1.20580521648808        5.33705752940201
O            7.88536603831289        5.14402798406806        4.33387765355833
H            7.10738876087677        4.57258150775759        4.34177979454169
H            8.63988902115615        4.54179155366540        4.34095759523928
O           -2.08111785359629       -8.69530823029836        3.33894241860142
H           -2.85870971130694       -9.26719543340807        3.33927793445223
H           -1.32670261913781       -9.29762808946648        3.33903547724785
O           -4.11256873073719        8.94397136328621        2.33918389339056
H           -4.88954042499699        8.37148647388577        2.33842755738701
H           -3.35820506120109        8.34193636625260        2.33938330575102
O            9.62503788649139       -3.03604762091629        1.31594204026268
H            8.86106995028213       -3.62488326996785        1.34862499239519
H           10.38958390376143       -3.62556539024105        1.34781131095523
O           -8.88236432727832       -3.45944218016773        0.33808340044032
H           -9.65855675599092       -4.03352927847595        0.33920913146788
H           -8.12623746426410       -4.05926631338200        0.33964051271409
O            4.58370726706223        9.39749947298187       -0.66078427892878
H            3.80607972758939        8.82590798374437       -0.66147755430820
H            5.33787082426103        8.79484766820904       -0.66085265332931
O            3.31018351408271       -9.08225085131492       -1.66168198251670
H            2.53238159621465       -9.65340173970782       -1.66063480553188
H            4.06402618629723       -9.68516847979653       -1.66078907046011
O           -8.02706559400737        5.20610570575594       -2.66153500701913
H           -8.80390517070861        4.63331215711508       -2.66062166998250
H           -7.27249639811373        4.60451666360345       -2.66081945437917
O            9.50039287463898        2.36290015795842       -3.64710329400967
H            8.72130199885971        1.79313691515672       -3.67721786680500
H           10.25428600405282        1.75972049940990       -3.66578876475293
O           -4.78539744942577       -6.95412353816048       -4.66160148858839
H           -5.56271806471828       -7.52623522550792       -4.66084287389896
H           -4.03091309731779       -7.55618364486745       -4.66047117109587
O           -0.72298129314627        8.63366666272119       -5.66157073640327
H           -1.50001119970624        8.06131794985268       -5.66035583354353
H            0.03156936950949        8.03165047794624       -5.66117309971981
O            6.16191149044990       -4.54574765834995       -6.65893249675326
H            5.38409456294594       -5.11687555681084       -6.66040505802666
H            6.91571367294712       -5.14858841582780       -6.66211876078701
O           -6.25857545030969        0.07803371025208       -7.66264304014119
H           -7.03531050906486       -0.49497045959633       -7.66006519315991
H           -5.50348728244063       -0.52317563094065       -7.65974439290634
O            4.08432598542770        4.06726101330676       -8.66236338987995
H            3.30699620956959        3.49529748381348       -8.65985203720379
H            4.83856942543975        3.46479428340125       -8.66015789760818
O            0.20618528252008       -2.76771661928790       -9.66210343452646
H           -0.57094297754160       -3.33997295357295       -9.66037904568622
H            0.96096839155265       -3.36950594775572       -9.66033595484811
81
 energy: -146.919024734367 gnorm: 0.040758776030 xtb: 6.6.0 (conda-forge)
C            0.98490000000000       -0.90609999999997       -0.14629999999998
C            1.99887817065763        0.13200116250394        0.23631814138779
O            2.59828924522012        0.82238328952478       -0.55770944037543
O            2.23520474465405        0.22144734233277        1.53131681862005
C           -0.50117459658476       -0.51596274603386        0.24629724521617
C           -1.11161148812367        0.48741838060773       -0.83593845846271
C           -0.42864728038486        1.81778658931607       -0.89742252832668
O            0.34772602176770        2.12951011361322       -1.77073933536653
O           -0.75115866700154        2.65093344445299        0.07710857685270
C           -1.34196378309677       -1.81430909852229        0.06265502113841
O           -2.15243232278860       -2.17718199333272        0.87248695941542
O           -1.12861481458471       -2.51121647023898       -1.05100932581003
O           -0.61809612021859       -0.08084328886780        1.48616489331248
H            1.21061710359524       -1.81493438187911        0.41203735859417
H            1.06658233140777       -1.08000056875180       -1.21739580393247
H            2.85507928930004        0.94048665601433        1.78090866792547
H           -2.14966751798409        0.62973546036508       -0.53478083315537
H           -1.05414515703293        0.04200434605521       -1.82944352819752
H           -0.29956455564821        3.51796077496473        0.02608617644964
H           -1.68014506043328       -3.32041416220747       -1.12166254975737
Li           7.01536112156472       -0.06077493274962       -0.15078631079550
O            3.47538380679752        0.34487570279553        9.34359016941872
H            2.69006206547624       -0.21122324474070        9.33298510622495
H            4.23049885674204       -0.25217214743492        9.33646009520657
O           -3.53473704733345       -3.21413470780318        8.35523908562728
H           -4.31587951466491       -3.77636766222196        8.33305460137020
H           -2.77480186144817       -3.80464759213854        8.32969637441886
O            0.92885510546452        6.93272988636721        7.33991310021884
H            0.14639634607861        6.37256422229312        7.33707496065138
H            1.68670733956212        6.33920456104670        7.33977082379085
O            4.97739690278809       -5.68592602786817        6.33735573375340
H            4.19177346077058       -6.24138760717626        6.33771575529580
H            5.73291349073044       -6.28245239176899        6.34134176127428
O           -7.87503146330734        1.79897850631493        5.34643580408487
H           -8.65367951753741        1.23310490765087        5.33530166880751
H           -7.11259418696644        1.21170381754020        5.33334245508611
O            7.88555812308450        5.13579361877750        4.32375934041194
H            7.10152729856672        4.57728044371507        4.34729976655549
H            8.64400226277757        4.54286686059491        4.34483146385416
O           -2.08029279180713       -8.70326193984647        3.33865084688850
H           -2.86342590393579       -9.26297201494409        3.33966063016109
H           -1.32191691438181       -9.29627738611754        3.33913244916255
O           -4.11286007849915        8.93652914631061        2.33978914595407
H           -4.89445828597215        8.37504980867088        2.33750604800744
H           -3.35415950411288        8.34440839401507        2.33996020165526
O            9.60060662497299       -3.03555537949778        1.31204049338707
H            8.85572270408758       -3.64340449081551        1.36178199395462
H           10.38980640374503       -3.58867484355626        1.32887566905798
O           -8.88402215593023       -3.46658537709377        0.33666382612667
H           -9.66263055279609       -4.03291719023246        0.33943937565420
H           -8.12039256193125       -4.05242611386854        0.34053361734345
O            4.58433936897077        9.39046729590056       -0.66051747979457
H            3.80086197619026        8.83159407687129       -0.66209242860228
H            5.34197459990092        8.79645886068421       -0.66038906491533
O            3.31208610910251       -9.08930191609180       -1.66285877248756
H            2.52790696733654       -9.64689990871034       -1.66010398593136
H            4.06881126274806       -9.68424445968173       -1.66071824533219
O           -8.02710091923009        5.19869653991504       -2.66274675685162
H           -8.80821708183207        4.63635900096130       -2.66006288896037
H           -7.26775122858171        4.60771590847408       -2.65997009620598
O            9.50209217245898        2.35564223639586       -3.60533073295732
H            8.71522820264528        1.80237938536182       -3.73106507737304
H           10.25834857580289        1.76011107487786       -3.66657363763038
O           -4.78478904164528       -6.96118042483105       -4.66269144559815
H           -5.56715042558914       -7.52176857807042       -4.66074743664839
H           -4.02593989987652       -7.55334925428019       -4.65972188767271
O           -0.72287680285761        8.62629740759595       -5.66289273696639
H           -1.50467282528730        8.06520506822661       -5.65896065820294
H            0.03608850017105        8.03418366902004       -5.66117657360973
O            6.16353930445741       -4.55229565245220       -6.65806884418704
H            5.37937295500243       -5.10989319633455       -6.65791680593232
H            6.92023577313127       -5.14705479330724       -6.66258703171007
O           -6.25888257458415        0.07084940723892       -7.66491251024074
H           -7.03952829187069       -0.49220246409626       -7.65884604601554
H           -5.49828767739282       -0.51895823012507       -7.65765305686183
O            4.08450325045763        4.06019926997249       -8.66406598736189
H            3.30181644954908        3.50029738002995       -8.65756969131490
H            4.84250737338096        3.46677937033921       -8.65937707169796
O            0.20650728944129       -2.77461252328310       -9.66380127686984
H           -0.57544297160534       -3.33552530019688       -9.65920151663032
H            0.96596692893687       -3.36617319954425       -9.65957167010183
81
 energy: -146.922724985706 gnorm: 0.034858771855 xtb: 6.6.0 (conda-forge)
C            0.98490000000001       -0.90609999999993       -0.14629999999998
C            1.98759145020605        0.13300254910478        0.23920439445107
O            2.62268995393073        0.81925948509881       -0.54128306077500
O            2.19979005038417        0.18999184568055        1.53894230823166
C           -0.49677876666312       -0.49266888165252        0.27882699818984
C           -1.11150438490922        0.48191962828953       -0.84229053657074
C           -0.42161366819381        1.80411446653712       -0.89863089430742
O            0.35907796146788        2.13377351841974       -1.76960180100365
O           -0.76994092447346        2.62129424957859        0.07842649243690
C           -1.34772292871861       -1.78945087903317        0.06454168473938
O           -2.17164360038139       -2.17916492864145        0.86057666815772
O           -1.08954139668561       -2.46314791209791       -1.05069093264313
O           -0.60757973757275       -0.04444366183707        1.50108498972701
H            1.19807739330559       -1.81098591852067        0.42174509986231
H            1.04210272918588       -1.08203236637044       -1.21800368869354
H            2.80458501601772        0.91767588262086        1.78701774903897
H           -2.14444965086148        0.63049697066824       -0.53108656781046
H           -1.04760259569140        0.01244669362148       -1.82284279215089
H           -0.31268045936836        3.48229435450304        0.01995647121197
H           -1.64026604782026       -3.26956926648206       -1.12342576939348
Li           7.06756308836517       -0.09182702013714       -0.13727716730887
O            3.47982565581334        0.34273113763288        9.35055448482785
H            2.68593767210493       -0.20112228730611        9.32445019953295
H            4.23138719687282       -0.25820438455817        9.33233859715126
O           -3.53520794983912       -3.21666094055864        8.37982683887807
H           -4.31858044243709       -3.77501151530632        8.32388070867029
H           -2.77216749399905       -3.80236152179526        8.31612316526197
O            0.93041399782681        6.92899308805970        7.34124955293669
H            0.14321112031945        6.37576659645267        7.33420633082459
H            1.68873527191825        6.33656219076064        7.34046434934065
O            4.98247421845640       -5.68770865080738        6.33424824305476
H            4.18812683609847       -6.23074498636383        6.33621536405835
H            5.73446837998026       -6.28807659011022        6.34483695859906
O           -7.87641759900612        1.79670115829143        5.35813832462610
H           -8.65383792444110        1.22977369006002        5.32992947628541
H           -7.10720057487852        1.21856601175666        5.32545239664066
O            7.88668773245156        5.13077931924123        4.30121970396734
H            7.09738998995484        4.58040551041242        4.35860219664322
H            8.64525820146385        4.53886655946971        4.35305625782322
O           -2.07858761840180       -8.70735503191217        3.33857407151105
H           -2.86655185905312       -9.25993758634954        3.34083150052326
H           -1.31966278290887       -9.29912608775802        3.33953974491133
O           -4.11258469580383        8.93325079831827        2.34099896593790
H           -4.89750526938454        8.37677789897412        2.33546958544333
H           -3.35189825127298        8.34411347300449        2.34115480662222
O            9.54941361860253       -3.02342879360467        1.26418958367360
H            8.84687435015213       -3.68520785153671        1.39565737614905
H           10.38501075304725       -3.51685757279201        1.31994376625468
O           -8.88758185894700       -3.46859423671135        0.33370626732457
H           -9.66393125255843       -4.03740031325174        0.34074508800648
H           -8.11586715312394       -4.04369259871191        0.34320275681053
O            4.58651780198703        9.38760166843844       -0.66052280232877
H            3.79736795358991        8.83697911337573       -0.66379032808434
H            5.34376087214136        8.79364103393339       -0.65977301641290
O            3.31581318965551       -9.09204482170028       -1.66555403141085
H            2.52474070395597       -9.63973308676799       -1.65867180781916
H            4.07090494662043       -9.68850015551246       -1.66015741341881
O           -8.02684112180515        5.19563608355440       -2.66506347919280
H           -8.81039678661016        4.63711715628469       -2.65837010236381
H           -7.26454878666514        4.60885098631429       -2.65821768638422
O            9.50073135432069        2.34996330250502       -3.56234562554202
H            8.71251615439430        1.81049459450894       -3.79346332953317
H           10.25728054778535        1.75755320536143       -3.67059087597138
O           -4.78388982844418       -6.96362735606911       -4.66540709379601
H           -5.57009532115504       -7.51847236120523       -4.65972362452923
H           -4.02345107168740       -7.55326011868993       -4.65725471785009
O           -0.72208088559850        8.62286363240384       -5.66595609380311
H           -1.50747524295040        8.06717562568042       -5.65612747732714
H            0.03864471046676        8.03348548651687       -5.66137347122779
O            6.16678871451955       -4.55426094834377       -6.65355749181169
H            5.37573700045252       -5.10196236309769       -6.65416497734147
H            6.92186211076545       -5.15052257737802       -6.66542869870964
O           -6.25965932908565        0.06814145639335       -7.67120217641163
H           -7.04175082516956       -0.49240150341618       -7.65504387740190
H           -5.49499076114805       -0.51598398967942       -7.65217166261273
O            4.08517779158236        4.05695440254883       -8.66895460152952
H            3.29751996647228        3.50435307831988       -8.65285353653248
H            4.84345951089823        3.46441658137785       -8.65738074080079
O            0.20696030223257       -2.77707192229223       -9.66830746315722
H           -0.57848194266604       -3.33269741118641       -9.65628506463109
H            0.96840668477861       -3.36558276475157       -9.65721094206509
81
 energy: -146.924053953442 gnorm: 0.038826402989 xtb: 6.6.0 (conda-forge)
C            0.98490000000003       -0.90609999999983       -0.14629999999993
C            1.99040720254176        0.11381324248801        0.24811084125456
O            2.64275034915873        0.81693826023841       -0.51294034695900
O            2.15833448632936        0.16205423814752        1.55837015122624
C           -0.49259397041661       -0.46675580918310        0.30935491578072
C           -1.11546649729819        0.47577039700518       -0.85275509838094
C           -0.43225704158386        1.79351737639064       -0.90902530963707
O            0.37279040542424        2.13339180594542       -1.76362723195357
O           -0.79180420934925        2.59679397243934        0.07930279164786
C           -1.34174204440341       -1.76649590681765        0.07562910200482
O           -2.19527987302969       -2.16967444125704        0.84630545727910
O           -1.05288712700394       -2.41274284836591       -1.04605271441577
O           -0.58899631091659        0.00858991863275        1.51153432230937
H            1.18391055788898       -1.81149532312776        0.42524338664735
H            1.00840417721211       -1.08422245461712       -1.21904442590390
H            2.73592440208023        0.91027138310078        1.81043665018337
H           -2.14588812049854        0.62888603721378       -0.53772581848869
H           -1.04193211505656       -0.02793860383767       -1.81504820477247
H           -0.31464894773366        3.44753623662328        0.02295936397876
H           -1.61102892980282       -3.21229733470959       -1.12996135012331
Li           7.17800791312253       -0.15686840558004       -0.11013981862855
O            3.48658324567656        0.34080544131419        9.36183339868888
H            2.68080527990266       -0.18582882386455        9.31109820437316
H            4.23068786157422       -0.26919897359211        9.32551208335791
O           -3.53594540302975       -3.21997878420466        8.41371179217670
H           -4.32095150851469       -3.77380717846106        8.31078312795763
H           -2.77023985085260       -3.79947681477512        8.29719918326508
O            0.93256914184429        6.92463694040879        7.34390514403727
H            0.13925625303307        6.37994228043022        7.32962309523115
H            1.68989145772568        6.33102557729294        7.34174279125962
O            4.99081567752353       -5.68872677161238        6.32868557715978
H            4.18396823158345       -6.21413615273031        6.33361836389063
H            5.73501735799357       -6.29867857736924        6.35103280107852
O           -7.87880118055951        1.79432739948098        5.37705326349685
H           -8.65254792776560        1.22300724194870        5.32022205134771
H           -7.10060250367758        1.22857057170848        5.31302006347197
O            7.88780190614516        5.12399120037373        4.26885917430937
H            7.09278458464993        4.58415568299442        4.37438983400517
H            8.64503379359487        4.53228966448923        4.36575914683326
O           -2.07570135774886       -8.71215810323462        3.33830502116336
H           -2.86979340441203       -9.25608983050284        3.34229473369914
H           -1.31764604786286       -9.30489267136201        3.33983183922892
O           -4.11240930865999        8.92966268409147        2.34333751844656
H           -4.90108678728516        8.37842813086331        2.33211923567887
H           -3.35018714637542        8.34254011009358        2.34306623725898
O            9.48792771857852       -2.99939193119123        1.27425992181076
H            8.82135753915516       -3.69081194712153        1.38456162804774
H           10.34980810450385       -3.44541521939113        1.27585084876904
O           -8.89334918150882       -3.47011022115112        0.32811236490803
H           -9.66406045161266       -4.04640895574782        0.34276722139418
H           -8.11017254470091       -4.03020082584828        0.34719261144788
O            4.58985932082686        9.38499042656892       -0.66034764184481
H            3.79324317020742        8.84486461074912       -0.66611636033857
H            5.34471883063327        8.78814039051401       -0.65806806280882
O            3.32206644979980       -9.09445219137527       -1.67046022547702