82
 energy: -147.080639624476 gnorm: 0.189865785094 xtb: 6.6.0 (conda-forge)
C            0.98490000000000       -0.90610000000000       -0.14630000000000
C            1.98910000000000        0.13430000000000        0.26100000000000
O            2.57510000000000        0.82640000000000       -0.61360000000000
O            2.30710000000000        0.30580000000000        1.60500000000000
C           -0.49910000000000       -0.54820000000000        0.17210000000000
C           -1.11270000000000        0.47020000000000       -0.83490000000000
C           -0.44530000000000        1.81430000000000       -0.87050000000000
O            0.34750000000000        2.09960000000000       -1.80750000000000
O           -0.72680000000000        2.76110000000000        0.10970000000000
C           -1.31120000000000       -1.81980000000000        0.04520000000000
O           -2.13830000000000       -2.14390000000000        0.94080000000000
O           -1.18240000000000       -2.61960000000000       -1.08840000000000
O           -0.63030000000000       -0.09300000000000        1.50200000000000
H            1.26010000000000       -1.84190000000000        0.38880000000000
H            1.09530000000000       -1.11580000000000       -1.23350000000000
H            2.99040000000000        0.99570000000000        1.89330000000000
H           -2.18310000000000        0.63270000000000       -0.57990000000000
H           -1.09070000000000        0.03920000000000       -1.86090000000000
H           -0.28820000000000        3.67400000000000        0.09130000000000
H           -1.73090000000000       -3.46470000000000       -1.19360000000000
Na           6.98890500000000       -0.03998500000000       -0.16099500000000
Na          -6.96785500000000       -0.03998500000000       -0.16099500000000
O            3.14056800000000        0.35775800000000        9.33900500000000
H            2.36592100000000       -0.22437800000000        9.33900500000000
H            3.89258300000000       -0.25333500000000        9.33900500000000
O           -3.86626300000000       -3.20060700000000        8.33900500000000
H           -4.64091000000000       -3.78274400000000        8.33900500000000
H           -3.11424800000000       -3.81170100000000        8.33900500000000
O            0.59633600000000        6.94681100000000        7.33900500000000
H           -0.17831100000000        6.36467400000000        7.33900500000000
H            1.34835100000000        6.33571700000000        7.33900500000000
O            4.64180400000000       -5.67308500000000        6.33900500000000
H            3.86715700000000       -6.25522200000000        6.33900500000000
H            5.39381900000000       -6.28417900000000        6.33900500000000
O           -8.20591000000000        1.81246500000000        5.33900500000000
H           -8.98055700000000        1.23032800000000        5.33900500000000
H           -7.45389500000000        1.20137100000000        5.33900500000000
O            7.55304500000000        5.15089300000000        4.33900500000000
H            6.77839800000000        4.56875700000000        4.33900500000000
H            8.30506000000000        4.53980000000000        4.33900500000000
O           -2.41377300000000       -8.68857500000000        3.33900500000000
H           -3.18842100000000       -9.27071100000000        3.33900500000000
H           -1.66175800000000       -9.29966800000000        3.33900500000000
O           -4.44464400000000        8.95044100000000        2.33900500000000
H           -5.21929100000000        8.36830400000000        2.33900500000000
H           -3.69262900000000        8.33934700000000        2.33900500000000
O            9.30500700000000       -3.03381600000000        1.33900500000000
H            8.53036000000000       -3.61595300000000        1.33900500000000
H           10.05702200000000       -3.64491000000000        1.33900500000000
O           -9.21382500000000       -3.45303300000000        0.33900500000000
H           -9.98847200000000       -4.03517000000000        0.33900500000000
H           -8.46181000000000       -4.06412700000000        0.33900500000000
O            4.25122800000000        9.40377200000000       -0.66099500000000
H            3.47658000000000        8.82163600000000       -0.66099500000000
H            5.00324300000000        8.79267900000000       -0.66099500000000
O            2.97704700000000       -9.07592900000000       -1.66099500000000
H            2.20240000000000       -9.65806500000000       -1.66099500000000
H            3.72906200000000       -9.68702200000000       -1.66099500000000
O           -8.35930200000000        5.21261600000000       -2.66099500000000
H           -9.13395000000000        4.63048000000000       -2.66099500000000
H           -7.60728700000000        4.60152300000000       -2.66099500000000
O            9.16707600000000        2.36914200000000       -3.66099500000000
H            8.39242900000000        1.78700500000000       -3.66099500000000
H            9.91909100000000        1.75804800000000       -3.66099500000000
O           -5.11800100000000       -6.94777300000000       -4.66099500000000
H           -5.89264800000000       -7.52990900000000       -4.66099500000000
H           -4.36598600000000       -7.55886600000000       -4.66099500000000
O           -1.05520700000000        8.64015400000000       -5.66099500000000
H           -1.82985400000000        8.05801800000000       -5.66099500000000
H           -0.30319200000000        8.02906000000000       -5.66099500000000
O            5.82889800000000       -4.53961500000000       -6.66099500000000
H            5.05425100000000       -5.12175100000000       -6.66099500000000
H            6.58091300000000       -5.15070800000000       -6.66099500000000
O           -6.59066100000000        0.08446700000000       -7.66099500000000
H           -7.36530800000000       -0.49767000000000       -7.66099500000000
H           -5.83864600000000       -0.52662700000000       -7.66099500000000
O            3.75206000000000        4.07357800000000       -8.66099500000000
H            2.97741300000000        3.49144100000000       -8.66099500000000
H            4.50407500000000        3.46248400000000       -8.66099500000000
O           -0.12616400000000       -2.76140800000000       -9.66099500000000
H           -0.90081100000000       -3.34354400000000       -9.66099500000000
H            0.62585100000000       -3.37250100000000       -9.66099500000000
82
 energy: -147.114010737845 gnorm: 0.092214382012 xtb: 6.6.0 (conda-forge)
C            0.98490000000001       -0.90610000000001       -0.14630000000002
C            1.98452415535268        0.14281346901651        0.24592608005822
O            2.59437110692732        0.81895468360160       -0.58270803080196
O            2.27655217964169        0.26439295753435        1.56446170949945
C           -0.50317680197694       -0.53957115985759        0.20509677533135
C           -1.10874363799957        0.48131599347252       -0.83269274917075
C           -0.42840128086520        1.81331718681794       -0.88074822065742
O            0.34171563665650        2.12033591815496       -1.78970247384648
O           -0.73920262276008        2.70894407669393        0.08999824583278
C           -1.33457751383105       -1.81590909661138        0.04979069521670
O           -2.15002727505378       -2.16720942851236        0.89651181119505
O           -1.16054100861614       -2.57451731217575       -1.06933485542137
O           -0.63121209298563       -0.09233209434216        1.49168151062916
H            1.23303299974473       -1.82826952014437        0.40112003771008
H            1.09247114787494       -1.09237484911208       -1.22385463773589
H            2.93226976956354        0.96333744131897        1.83134213532491
H           -2.16301561669778        0.62822025820841       -0.55226904992256
H           -1.06670977730707        0.05142002306110       -1.84471382869318
H           -0.29524126653847        3.59729036913031        0.05632278342226
H           -1.70634006346752       -3.40274038291327       -1.15400059243618
Na           6.99141044776019       -0.04242702980910       -0.15614558601552
Na          -6.97268204257432       -0.05311515516314       -0.15137401268515
O            3.14118566250077        0.35167329162046        9.34272670999411
H            2.36312292514402       -0.21924471230081        9.33598088547349
H            3.89463944917656       -0.25166670501355        9.33710320825928
O           -3.86701394391969       -3.20698861859270        8.34425094121299
H           -4.64348241112433       -3.78052540699555        8.33734012517923
H           -3.11160627112777       -3.80756035184184        8.33544149296646
O            0.59613854892581        6.94025520874439        7.33983429569000
H           -0.18087829016570        6.36782255660584        7.33823684113918
H            1.35051864500666        6.33821057858899        7.33879631052032
O            4.64272723072736       -5.67928840525801        6.33951309776738
H            3.86445177463966       -6.24988214127786        6.33818433523596
H            5.39643292064348       -6.28249714526071        6.33953959214587
O           -8.20586790887699        1.80511476939068        5.33175212535783
H           -8.98268590465163        1.23183561495843        5.34043034735385
H           -7.45010506931886        1.20472786235532        5.34012992866293
O            7.55299409217711        5.14397256427114        4.33612787095440
H            6.77512203907895        4.57255680227737        4.34062255511971
H            8.30756383414347        4.54181158839698        4.33967922378898
O           -2.41380722903650       -8.69537234047777        3.33870132494659
H           -3.19101520347885       -9.26798636271432        3.33938959325602
H           -1.65892535244618       -9.29687166041735        3.33905337366341
O           -4.44500765325549        8.94387224409929        2.33898519065107
H           -5.22196586199436        8.37111947097534        2.33857488110957
H           -3.69029979593480        8.34235547415969        2.33947394609828
O            9.29186089907981       -3.03578207522242        1.32225923390454
H            8.52804339629383       -3.62484509581443        1.34478494961640
H           10.05701487244561       -3.62528178110959        1.34502885898791
O           -9.20164694602557       -3.45451150145536        0.33318193887953
H           -9.98785132553241       -4.01555125209219        0.34094023184675
H           -8.45995226978411       -4.07119000739863        0.34134140381423
O            4.25130362465289        9.39747758690199       -0.66075573265803
H            3.47388061587401        8.82566225043294       -0.66146124335735
H            5.00553754391451        8.79510720037090       -0.66078626643626
O            2.97771736565563       -9.08231902809007       -1.66201681318370
H            2.20005971856983       -9.65391726180428       -1.66053898503499
H            3.73189562317586       -9.68481789261033       -1.66068036606723
O           -8.36015857330522        5.20596730539719       -2.65946180687442
H           -9.13665892022009        4.63220203841191       -2.66145504201360
H           -7.60349546723737        4.60649509937396       -2.66330721250592
O            9.16705400335925        2.36207734457198       -3.65696958789367
H            8.38879177709906        1.79076486639399       -3.66908948409536
H            9.92245043883628        1.76026609544071       -3.66400593834010
O           -5.11802539431678       -6.95401111711446       -4.66018161668487
H           -5.89498475684196       -7.52673349874174       -4.66154483490142
H           -4.36318763446160       -7.55530517791448       -4.66095839173736
O           -1.05540389058119        8.63362482246493       -5.66161952618555
H           -1.83229656035478        8.06093399809106       -5.66036566444555
H           -0.30059803235049        8.03209848104044       -5.66106374680979
O            5.82955271329964       -4.54575611186013       -6.66090795420395
H            5.05179187295264       -5.11710039642868       -6.65956036269947
H            6.58360797508619       -5.14836442888368       -6.66128171165997
O           -6.59101702084442        0.07786879774461       -7.65811826958960
H           -7.36767120514069       -0.49542614030826       -7.66174116693846
H           -5.83561398776204       -0.52280453131670       -7.66137781787359
O            3.75187538684381        4.06731817414944       -8.66412934964656
H            2.97476984983234        3.49501929121659       -8.65904455961394
H            4.50634319397900        3.46528149533345       -8.65914578076427
O           -0.12634199397948       -2.76771880679435       -9.66232699051371
H           -0.90320234947539       -3.34052276968273       -9.66043265083110
H            0.62883167391303       -3.36885929124691       -9.66011824462575
82
 energy: -147.128406562103 gnorm: 0.038136064576 xtb: 6.6.0 (conda-forge)
C            0.98490000000004       -0.90610000000004       -0.14630000000005
C            2.00012640731163        0.12921692724403        0.23377037853150
O            2.60228109051352        0.82267503982915       -0.55976942088880
O            2.23772034913513        0.21880269508778        1.53286346173234
C           -0.50456853399664       -0.51583902444603        0.25318481744163
C           -1.11100085803626        0.49019014878564       -0.83791186872992
C           -0.42631141345954        1.81537337764360       -0.89795717444175
O            0.35122349540896        2.13144500783839       -1.77224760948905
O           -0.75627418093640        2.65239340296946        0.07585652135744
C           -1.34723459165969       -1.80896812135824        0.05737979688025
O           -2.17090508392284       -2.17295832913378        0.85846511687989
O           -1.12686859609343       -2.51516860902536       -1.05371820143741
O           -0.62567332052758       -0.08248747288145        1.48727890688900
H            1.21211638405086       -1.81434996956155        0.41142693552551
H            1.06669100039965       -1.07937072570331       -1.21714646805935
H            2.85846616227404        0.93742982692944        1.77291168735229
H           -2.14736774949114        0.63344147317119       -0.53246642560213
H           -1.05076592514597        0.04119028406261       -1.82913775520897
H           -0.29742063267310        3.51353969568647        0.02419132652105
H           -1.67854543665181       -3.32398306231493       -1.11531458426371
Na           6.99460590466409       -0.04722044401774       -0.14614384318759
Na          -6.98292102025228       -0.07401745230728       -0.13576328074709
O            3.14239905038268        0.34456526873736        9.34750305392961
H            2.35768446265806       -0.21221898578227        9.33159721596819
H            3.89858088918186       -0.25067393018942        9.33450710453578
O           -3.86834849341891       -3.21455293776887        8.35077017469374
H           -4.64831804814049       -3.77844931654349        8.33540649864677
H           -3.10665218414062       -3.80228279305766        8.33063445642848
O            0.59593692587074        6.93233541686190        7.34121049290362
H           -0.18592014073764        6.37143718404750        7.33694223708523
H            1.35482720428474        6.34064282716478        7.33867744675868
O            4.64451713355740       -5.68649398646417        6.34050343165903
H            3.85928787795862       -6.24251815498199        6.33674008699935
H            5.40112191102840       -6.28146959266348        6.34021499005304
O           -8.20569428149270        1.79592091377572        5.31516616693238
H           -8.98641312002537        1.23277172967110        5.34267048380642
H           -7.44342117557652        1.20854701303019        5.34605688310400
O            7.55304328260430        5.13549616292028        4.32964501226091
H            6.76925791982191        4.57713401783191        4.34384191633897
H            8.31195767520133        4.54340634864865        4.34192996979751
O           -2.41386588163323       -8.70358854666237        3.33791932359689
H           -3.19582159405092       -9.26494613969098        3.34000332958213
H           -1.65381640104325       -9.29387191854943        3.33917121599793
O           -4.44557716659471        8.93604912733092        2.33909540990379
H           -5.22705349007081        8.37428207286307        2.33811750319502
H           -3.68577687418754        8.34570458050291        2.34009570060291
O            9.26976780743040       -3.03671050348672        1.30717119163212
H            8.52228385186670       -3.64154995278045        1.36297484082739
H           10.05766952914299       -3.59277379069647        1.33372754202758
O           -9.18051293166073       -3.45414717618963        0.33087399089092
H           -9.98761860763441       -3.98229085612642        0.33626359932178
H           -8.45489447311617       -4.08546125125012        0.34586280981037
O            4.25167142290395        9.39013112380426       -0.66050052537450
H            3.46871467959731        8.83086456992660       -0.66201073956748
H            5.00996444487396        8.79749105834741       -0.66023800076203
O            2.97896372784227       -9.08982556901467       -1.66316500124917
H            2.19549275150464       -9.64852629553119       -1.66012829115581
H            3.73705311228081       -9.68277653509225       -1.66064294464802
O           -8.36126615426979        5.19785109166875       -2.64882018609976
H           -9.14119924196138        4.63349773069675       -2.66455074010249
H           -7.59715348758519        4.61243661290799       -2.67221402387931
O            9.16753650511434        2.35373204392429       -3.60206415007760
H            8.38283347269358        1.79617218180274       -3.72603488757552
H            9.92762489206332        1.76215372830714       -3.67516642080552
O           -5.11808791573416       -6.96112753232714       -4.65965975803583
H           -5.89952117782227       -7.52288419878760       -4.66219992436897
H           -4.35793863432643       -7.55092211076406       -4.66054243535405
O           -1.05559207831001        8.62593478367709       -5.66273733318125
H           -1.83699780366022        8.06431092230697       -5.65940150688400
H           -0.29562530978237        8.03559092297680       -5.66083462569529
O            5.83079073456056       -4.55274252925488       -6.66256373357763
H            5.04701043874829       -5.11084294498213       -6.65627868689725
H            6.58857015114720       -5.14601723035534       -6.66088325839161
O           -6.59156796264651        0.07015342364754       -7.65525895776452
H           -7.37207678832711       -0.49307691092043       -7.66228366883251
H           -5.83004240773641       -0.51800185546504       -7.66064033364346
O            3.75165958278089        4.06005967847137       -8.66810201659976
H            2.96966348001807        3.49942693767404       -8.65598039223243
H            4.51071669848008        3.46847020265209       -8.65691335135714
O           -0.12659032180437       -2.77494407262863       -9.66368939078158
H           -0.90772071226398       -3.33700659068492       -9.65981265033746
H            0.63428652089821       -3.36420961312846       -9.65920180747512
82
 energy: -147.132129259285 gnorm: 0.030558943976 xtb: 6.6.0 (conda-forge)
C            0.98490000000009       -0.90610000000009       -0.14630000000011
C            1.98991318715732        0.12914749604145        0.23587896016347
O            2.62464730332973        0.81777787179395       -0.54525955751288
O            2.20797427613376        0.18824140384843        1.53885213349939
C           -0.50125347347454       -0.49394923917191        0.28383674130753
C           -1.11009674765194        0.48507756789917       -0.84694141731127
C           -0.42111232979239        1.80332207476281       -0.90244965473074
O            0.36611827573869        2.13493439990468       -1.76976605892198
O           -0.77513830860904        2.62512493188319        0.07436448733639
C           -1.34929343329119       -1.78775976386666        0.05968453774186
O           -2.20902794559504       -2.16034633551147        0.83163206889761
O           -1.08534238653312       -2.47224794373638       -1.05205883799287
O           -0.61987674028997       -0.04578800355164        1.50107876209795
H            1.20040254571802       -1.81116351957325        0.42079943076607
H            1.04236272516918       -1.08234657281022       -1.21804516607886
H            2.81735568651770        0.91379242771724        1.77645799864425
H           -2.14199852057926        0.63500203501887       -0.53311102270042
H           -1.04236467384559        0.01090257798134       -1.82480986934912
H           -0.30769770289672        3.47996767836469        0.01994797124600
H           -1.64381978372959       -3.27368951173443       -1.12124560012718
Na           7.00969841556128       -0.05642632177729       -0.12993871674992
Na          -7.00712597202172       -0.11517894964182       -0.10468011568328
O            3.14577511234275        0.34274245180150        9.36047040941994
H            2.35407479852581       -0.20410959003346        9.32088106778061
H            3.89974889297753       -0.25484471690891        9.32727128252532
O           -3.87070682510755       -3.21671222585405        8.36885944097433
H           -4.65057530544901       -3.78025209045827        8.32964831593979
H           -3.10370506915279       -3.79725135222586        8.31870408258632
O            0.59663113716684        6.92887808109728        7.34427524599314
H           -0.18852689563427        6.37273770007228        7.33391916514791
H            1.35722719222207        6.33961495672277        7.33787132307583
O            4.64863741695718       -5.68832462167382        6.34242555130603
H            3.85605677086569       -6.23402174190901        6.33360508220813
H            5.40283511367987       -6.28593354283682        6.34164267139062
O           -8.20476818422344        1.79072826352408        5.28311019597307
H           -8.98562746913794        1.22866378615549        5.34874039624282
H           -7.43748848801610        1.21061607153828        5.35567967068413
O            7.55402579836862        5.13098668259240        4.31640224356639
H            6.76554313251261        4.57949941838804        4.34981915006112
H            8.31334968468729        4.53989481389953        4.34535200799778
O           -2.41409851528538       -8.70724896829603        3.33669098771994
H           -3.19852151804943       -9.26488318922515        3.34176448546594
H           -1.65135486517518       -9.29381170678438        3.33975091978150
O           -4.44590533307210        8.93307760358161        2.33943977238150
H           -5.22963837694213        8.37468360581018        2.33682482923449
H           -3.68324419673287        8.34660998161440        2.34151065339537
O            9.22557007345173       -3.02894198821803        1.26667793931552
H            8.51474353646835       -3.67988560824516        1.39222334673660
H           10.05382446883870       -3.53262226250929        1.32708952925409
O           -9.13819670671387       -3.44250067486172        0.31986405014981
H           -9.98188109936610       -3.91947263028652        0.33415175229346
H           -8.44868919560155       -4.11752560999299        0.35571568971455
O            4.25334197137480        9.38754711143520       -0.66057930467867
H            3.46577304507323        8.83483492696713       -0.66362658860726
H            5.01202803309452        8.79572401269061       -0.65947593800359
O            2.98125066434631       -9.09258804437559       -1.66635906476513
H            2.19272948984415       -9.64411025624715       -1.65868298916975
H            3.73931772987211       -9.68521932370395       -1.65992538538718
O           -8.36257752922408        5.19414985268042       -2.63240486343237
H           -9.14204711882696        4.62974945608802       -2.66901591599662
H           -7.59269019963294        4.61678807130250       -2.68465283975794
O            9.16420667365289        2.34624550343524       -3.56885694321523
H            8.38107865296475        1.79834171495858       -3.77552973998968
H            9.92686321026619        1.76181210086872       -3.68207345988652
O           -5.11873774591693       -6.96266798348622       -4.65724447328100
H           -5.90215769841890       -7.52140273744193       -4.66350373647478
H           -4.35536127579952       -7.54811773144687       -4.65965285848385
O           -1.05549213729286        8.62285157611879       -5.66544220592610
H           -1.83924739812692        8.06472116679900       -5.65724077889850
H           -0.29272594099562        8.03633401514488       -5.66071145364391
O            5.83315792276353       -4.55464857288042       -6.66577047881872
H            5.04382716234666       -5.10487329942407       -6.64977649661034
H            6.59038945791247       -5.14826819508062       -6.66061738251120
O           -6.59300243118661        0.06749856857027       -7.64658568484284
H           -7.37400093578573       -0.49469373422727       -7.66399651806460
H           -5.82667944753074       -0.51429737737627       -7.66033737456632
O            3.75142514370112        4.05732873206224       -8.67913998643314
H            2.96595002223415        3.50179300470092       -8.64892844099964
H            4.51199099553134        3.46801605602820       -8.65125645628544
O           -0.12751389802686       -2.77706329547949       -9.66793849949567
H           -0.91021753591780       -3.33665699413603       -9.65774255766908
H            0.63704649147983       -3.36135460083423       -9.65634730762477
82
 energy: -147.133823005603 gnorm: 0.033361841176 xtb: 6.6.0 (conda-forge)
C            0.98490000000019       -0.90610000000016       -0.14630000000021
C            1.99748447450049        0.10597647769610        0.24409521664866
O            2.64564242551497        0.81199594078901       -0.51884133548540
O            2.17322810040950        0.16135839003977        1.55736987838955
C           -0.49885967521421       -0.47063614811791        0.30772965450795
C           -1.11318831395067        0.48069285042610       -0.86129501681289
C           -0.42899139948351        1.79378167706936       -0.91408000299908
O            0.38518638542117        2.13410426963568       -1.76263464708670
O           -0.79608690138673        2.60442727568130        0.07171601124109
C           -1.35123540342781       -1.76092874558182        0.06342675930611
O           -2.26038765042137       -2.12699294143436        0.79701582005266
O           -1.04437773998776       -2.43231677888024       -1.04337257171434
O           -0.60477613505807        0.00658762496569        1.50698534371136
H            1.18628101445185       -1.81340009666863        0.42255044443342
H            1.00954304381871       -1.08510125609049       -1.21907579432748
H            2.75875990716372        0.90621867087818        1.79934924473889
H           -2.14347643763217        0.63648640360611       -0.54633158372743
H           -1.03550885667486       -0.02692804459151       -1.82104855612732
H           -0.30842109906394        3.44997452322107        0.02404351091333
H           -1.61773291866322       -3.22239397847142       -1.12890402590155
Na           7.04793237540911       -0.07993099714801       -0.10313504399354
Na          -7.05218550235618       -0.19064570962944       -0.05314255504032
O            3.15081368547197        0.34111482261602        9.38121616714088
H            2.34995539688050       -0.19184513699166        9.30399703997515
H            3.89936281493243       -0.26268922561651        9.31526313912650
O           -3.87470079194940       -3.21899039232767        8.39735571079852
H           -4.65241632969673       -3.78442882440408        8.31939872047922
H           -3.10129796675866       -3.78956979469775        8.30017990604191
O            0.59750674206921        6.92493287373417        7.35055599725674
H           -0.19136213829123        6.37379457128289        7.32851288694875
H            1.35907398092882        6.33675862847528        7.33623313229079
O            4.65553100522508       -5.68939924566450        6.34600295777466
H            3.85243638612725       -6.22044979951990        6.32798658367505
H            5.40346038125180       -6.29498792679779        6.34407823724369
O           -8.20291438859787        1.78246716999327        5.23917323063074
H           -8.98192700172513        1.22106122613238        5.35435595415932
H           -7.43041821802761        1.21292655526749        5.36401256523398
O            7.55530944973661        5.12518624749607        4.29457870802036
H            6.76127617563643        4.58222183898554        4.35963892602807
H            8.31344133286232        4.53310895603726        4.35167701398887
O           -2.41449752420451       -8.71138405403415        3.33455697247221
H           -3.20120414636380       -9.26592598193838        3.34436689686323
H           -1.64918006980692       -9.29477185435185        3.34048196291334
O           -4.44656946506938        8.93001884015970        2.34061442596295
H           -5.23227341124200        8.37418341687325        2.33426089100698
H           -3.68105968651803        8.34702069982865        2.34368906597047
O            9.17197161560946       -3.01439320317742        1.28186525371410
H            8.49523906733236       -3.69337075516911        1.38164274142846
H           10.02542207554937       -3.47241448205539        1.28772741583653
O           -9.08329012446802       -3.41869975143112        0.31392082811715
H           -9.95714743862361       -3.84387826785046        0.32542125171434