80
 energy: -146.851046250321 gnorm: 0.211537164589 xtb: 6.6.0 (conda-forge)
C            0.98490000000000       -0.90610000000000       -0.14630000000000
C            1.98910000000000        0.13430000000000        0.26100000000000
O            2.57510000000000        0.82640000000000       -0.61360000000000
O            2.30710000000000        0.30580000000000        1.60500000000000
C           -0.49910000000000       -0.54820000000000        0.17210000000000
C           -1.11270000000000        0.47020000000000       -0.83490000000000
C           -0.44530000000000        1.81430000000000       -0.87050000000000
O            0.34750000000000        2.09960000000000       -1.80750000000000
O           -0.72680000000000        2.76110000000000        0.10970000000000
C           -1.31120000000000       -1.81980000000000        0.04520000000000
O           -2.13830000000000       -2.14390000000000        0.94080000000000
O           -1.18240000000000       -2.61960000000000       -1.08840000000000
O           -0.63030000000000       -0.09300000000000        1.50200000000000
H            1.26010000000000       -1.84190000000000        0.38880000000000
H            1.09530000000000       -1.11580000000000       -1.23350000000000
H            2.99040000000000        0.99570000000000        1.89330000000000
H           -2.18310000000000        0.63270000000000       -0.57990000000000
H           -1.09070000000000        0.03920000000000       -1.86090000000000
H           -0.28820000000000        3.67400000000000        0.09130000000000
H           -1.73090000000000       -3.46470000000000       -1.19360000000000
O            2.04094300000000        0.35775800000000        5.99346600000000
H            1.26629500000000       -0.22437800000000        5.99346600000000
H            2.79295800000000       -0.25333500000000        5.99346600000000
O           -2.49834900000000       -1.94748600000000        5.34562800000000
H           -3.27299600000000       -2.52962300000000        5.34562800000000
H           -1.74633400000000       -2.55858000000000        5.34562800000000
O            0.39269200000000        4.62639700000000        4.69779000000000
H           -0.38195500000000        4.04426000000000        4.69779000000000
H            1.14470700000000        4.01530300000000        4.69779000000000
O            3.01350000000000       -3.54925100000000        4.04995200000000
H            2.23885300000000       -4.13138800000000        4.04995200000000
H            3.76551500000000       -4.16034500000000        4.04995200000000
O           -5.30973700000000        1.30017200000000        3.40211400000000
H           -6.08438400000000        0.71803600000000        3.40211400000000
H           -4.55772200000000        0.68907900000000        3.40211400000000
O            4.89951300000000        3.46293300000000        2.75427600000000
H            4.12486500000000        2.88079700000000        2.75427600000000
H            5.65152800000000        2.85184000000000        2.75427600000000
O           -1.55737100000000       -5.50280000000000        2.10643800000000
H           -2.33201800000000       -6.08493600000000        2.10643800000000
H           -0.80535600000000       -6.11389400000000        2.10643800000000
O           -2.87304600000000        5.92442500000000        1.45860000000000
H           -3.64769300000000        5.34228800000000        1.45860000000000
H           -2.12103100000000        5.31333100000000        1.45860000000000
O            6.03450000000000       -1.83943300000000        0.81076200000000
H            5.25985300000000       -2.42156900000000        0.81076200000000
H            6.78651500000000       -2.45052600000000        0.81076200000000
O           -5.96270300000000       -2.11101700000000        0.16292400000000
H           -6.73735000000000       -2.69315400000000        0.16292400000000
H           -5.21068800000000       -2.72211100000000        0.16292400000000
O            2.76047000000000        6.21811000000000       -0.48491400000000
H            1.98582300000000        5.63597300000000       -0.48491400000000
H            3.51248500000000        5.60701600000000       -0.48491400000000
O            1.93500700000000       -5.75374200000000       -1.13275200000000
H            1.16036000000000       -6.33587900000000       -1.13275200000000
H            2.68702200000000       -6.36483600000000       -1.13275200000000
O           -5.40911100000000        3.50292000000000       -1.78059000000000
H           -6.18375800000000        2.92078300000000       -1.78059000000000
H           -4.65709500000000        2.89182600000000       -1.78059000000000
O            5.94514400000000        1.66080900000000       -2.42842800000000
H            5.17049600000000        1.07867300000000       -2.42842800000000
H            6.69715900000000        1.04971500000000       -2.42842800000000
O           -3.30927200000000       -4.37504200000000       -3.07626600000000
H           -4.08391900000000       -4.95717900000000       -3.07626600000000
H           -2.55725700000000       -4.98613600000000       -3.07626600000000
O           -0.67724000000000        5.72340900000000       -3.72410400000000
H           -1.45188700000000        5.14127200000000       -3.72410400000000
H            0.07477500000000        5.11231500000000       -3.72410400000000
O            3.78254500000000       -2.81494600000000       -4.37194200000000
H            3.00789800000000       -3.39708300000000       -4.37194200000000
H            4.53456000000000       -3.42604000000000       -4.37194200000000
O           -4.26331700000000        0.18071000000000       -5.01978000000000
H           -5.03796400000000       -0.40142700000000       -5.01978000000000
H           -3.51130200000000       -0.43038400000000       -5.01978000000000
O            2.43709000000000        2.76500700000000       -5.66761800000000
H            1.66244300000000        2.18287100000000       -5.66761800000000
H            3.18910500000000        2.15391400000000       -5.66761800000000
O           -0.07537000000000       -1.66295600000000       -6.31545600000000
H           -0.85001800000000       -2.24509200000000       -6.31545600000000
H            0.67664500000000       -2.27405000000000       -6.31545600000000
80
 energy: -146.890024619166 gnorm: 0.094035582792 xtb: 6.6.0 (conda-forge)
C            0.98489999999986       -0.90610000000019       -0.14630000000015
C            1.98685188716466        0.14048536636255        0.24476965375365
O            2.57539284103475        0.82541149702269       -0.58456283711436
O            2.27570540046931        0.26780328799521        1.56217665608999
C           -0.50189764702792       -0.53884675596830        0.20473434074052
C           -1.10967317433458        0.48125298163921       -0.83179016152621
C           -0.42876714506214        1.81344790127725       -0.87777819091945
O            0.33615484480881        2.12155217883498       -1.78485224615192
O           -0.73962679170202        2.70903568738720        0.09259137910170
C           -1.33658704574818       -1.81603285650475        0.04685681799437
O           -2.14083836875015       -2.16969370132495        0.89302421998186
O           -1.15940801687837       -2.57479852969533       -1.06861554515269
O           -0.62733659197354       -0.09412486233811        1.49038306877002
H            1.23498269196011       -1.82820212194257        0.39913800866091
H            1.09258388948783       -1.09185801764696       -1.22353234136596
H            2.94055902071304        0.95870886782915        1.81913401266963
H           -2.16391226057472        0.62646905058576       -0.55354930989457
H           -1.06686068605177        0.05224820808635       -1.84371157481746
H           -0.29141704519472        3.59337875011005        0.05731861987327
H           -1.71953203922449       -3.39236811333164       -1.15944726119961
O            2.04757408407459        0.35493524129247        6.01485863443754
H            1.26530987473747       -0.20861921018327        5.98248882752592
H            2.79470650955103       -0.25553181235566        5.99194623474977
O           -2.50409252506780       -1.95611567361075        5.37267495440691
H           -3.27777697833512       -2.53309471259967        5.34149666487467
H           -1.74984268982937       -2.55606984825384        5.33512837325179
O            0.38816537970486        4.62177985235556        4.70061778884460
H           -0.38336412775747        4.04262001663673        4.70502768489820
H            1.14405745343163        4.02318853399023        4.70146185696340
O            3.02092978573673       -3.55735142114555        4.05189507975417
H            2.24027696092705       -4.12290110677403        4.05084468717917
H            3.77006780970334       -4.16595889062874        4.05909019639521
O           -5.31540002814157        1.29896542085595        3.40999481881029
H           -6.08605611610275        0.71758394000472        3.40118657733982
H           -4.55496062038906        0.70575654536259        3.39754147835978
O            4.90540032706971        3.45753187738244        2.75916949863223
H            4.12790148837052        2.88902440210489        2.75835127539619
H            5.65784339377951        2.85261767964709        2.75181211696115
O           -1.55828032751778       -5.51508037545132        2.10297850257626
H           -2.33952061246850       -6.08288689377942        2.10951851638106
H           -0.80885668526078       -6.12235855162193        2.11135554572569
O           -2.87547094747261        5.92169279225598        1.45815876394159
H           -3.65177880554065        5.34846010775511        1.46353061196116
H           -2.12458370808430        5.31756044467433        1.45866098190875
O            6.03792009566505       -1.84672213711053        0.81509680132640
H            5.26064753565388       -2.41643185327929        0.80342222587699
H            6.79157005809870       -2.45081497593070        0.81080640758152
O           -5.96866503309686       -2.11646686322753        0.15044634082140
H           -6.74039458569376       -2.69779772612713        0.16445178253017
H           -5.20703213755195       -2.70790389584335        0.17760200055056
O            2.76467108670086        6.21614152672491       -0.48205591834166
H            1.98989859472759        5.64374256757863       -0.48569055858429
H            3.51736824153259        5.61207310499975       -0.49208344968657
O            1.93764242057709       -5.76308086239929       -1.13193294857508
H            1.16696568103306       -6.34215224645531       -1.13891805029105
H            2.69577878832256       -6.36102390024139       -1.13072146029814
O           -5.41351416407404        3.49580357459106       -1.78386263198692
H           -6.18994107778626        2.92236738735733       -1.77869007668480
H           -4.66202212940414        2.89292269092906       -1.78075453540967
O            5.95008445661071        1.65701978948656       -2.43790794387350
H            5.16831554494542        1.09203944418918       -2.41178147074125
H            6.69934398571059        1.04796468647508       -2.42716367416595
O           -3.30603034491822       -4.38503219300535       -3.04943287729851
H           -4.08578916940410       -4.95428581289985       -3.08818446449344
H           -2.55599394415963       -4.99094654577483       -3.09289583670643
O           -0.67616975355997        5.72056503681031       -3.72203636325610
H           -1.45314141828251        5.14875220091260       -3.73253047721934
H            0.07579085571781        5.11680846147359       -3.73303286712655
O            3.78322427207928       -2.82268806967728       -4.38642207766694
H            3.00982535166711       -3.39817719991072       -4.36010848136984
H            4.53986140663526       -3.42269405622202       -4.36811039162212
O           -4.26863242836856        0.17676396702454       -5.02747553583037
H           -5.04179050088060       -0.40158987990712       -5.01580960768247
H           -3.51109750104694       -0.41922658398135       -5.01786986388125
O            2.43431525081610        2.76041068379812       -5.68302678254773
H            1.66184829117655        2.18329832443623       -5.66582207893772
H            3.19002265721480        2.16059074172578       -5.66619568001105
O           -0.07957167183461       -1.67004689126538       -6.32142059273237
H           -0.84861242883362       -2.25191791904080       -6.32133274621612
H            0.68113279291601       -2.26356199564882       -6.31783141382805
80
 energy: -146.906859860209 gnorm: 0.040898229528 xtb: 6.6.0 (conda-forge)
C            0.98489999999970       -0.90610000000042       -0.14630000000032
C            1.99128661294066        0.13771842874408        0.22840591481792
O            2.56826425160152        0.83966092012850       -0.57062367332631
O            2.23950577645869        0.22412053571582        1.52583002896803
C           -0.50155319157099       -0.51737560554552        0.25255647646801
C           -1.11063978679663        0.48768412148734       -0.83492015750825
C           -0.43062421074108        1.81516153739172       -0.89466832441057
O            0.34193131416863        2.13770239296332       -1.76733152557955
O           -0.75782593642142        2.65012659608987        0.08625570284710
C           -1.34361680372042       -1.81500704101334        0.05744334254970
O           -2.16458860460383       -2.17953200110823        0.85478200267522
O           -1.12593968623301       -2.51387783289450       -1.05930888353496
O           -0.62044516663106       -0.08532715054473        1.48728452097040
H            1.21467591924632       -1.81449843078448        0.40977114699527
H            1.06899583363517       -1.07881511699948       -1.21703589191359
H            2.88086647773130        0.92625801459066        1.74500986911499
H           -2.14810670429864        0.62557252352374       -0.53292510255547
H           -1.04786371691015        0.04236146084281       -1.82723380571920
H           -0.28824181152359        3.50282449242447        0.03386762353351
H           -1.71085868157428       -3.29793391424768       -1.13589184049754
O            2.05926904848594        0.35377127522568        6.04933011607073
H            1.26245558250005       -0.18307732159323        5.96707721623597
H            2.79859324858197       -0.26112527726841        5.99047815698162
O           -2.51542758281709       -1.96864101822474        5.40798446970875
H           -3.28760436486692       -2.54192726986449        5.33971087968444
H           -1.75431424510816       -2.55281395097181        5.32322807031048
O            0.37979287082155        4.61635884662869        4.70700085931742
H           -0.38763471212583        4.03648231679398        4.71551066984783
H            1.14536640544760        4.03489083208212        4.70738138752219
O            3.03572071999772       -3.56831802143852        4.05361145068340
H            2.24198266413963       -4.11011062361011        4.05346721952519
H            3.77909712241547       -4.17955291219288        4.07698105256024
O           -5.32618753959289        1.30183530230326        3.42336772345985
H           -6.08952788671888        0.71523472884454        3.40278989487518
H           -4.54961275561155        0.73435099848803        3.38746633247604
O            4.91825897249034        3.45222357287322        2.76363306911400
H            4.13442415128532        2.89903834682152        2.77109172676286
H            5.67166268664943        2.85274407185409        2.75008275108153
O           -1.56082346604552       -5.53354018034144        2.09543833786285
H           -2.35400141052918       -6.08081854593318        2.11411205189858
H           -0.81554488998733       -6.14084047495709        2.12221184297946
O           -2.88064674740419        5.92087989473845        1.45547982838002
H           -3.66076031177966        5.35734067317221        1.47423635699470
H           -2.12815529254163        5.32409308678092        1.46139619339416
O            6.04545048778344       -1.85551707810171        0.81911940834546
H            5.26152788966191       -2.40991971691489        0.79158385042380
H            6.80096811657904       -2.45338669507199        0.81236124455899
O           -5.97991153522746       -2.12182909588945        0.13009033188891
H           -6.74432309963872       -2.70891835885367        0.16595109199967
H           -5.20017260696757       -2.68417652949798        0.20375634262465
O            2.77529114108870        6.21854224209042       -0.47668476264659
H            1.99465730222169        5.66030066369245       -0.48656435934525
H            3.52788453838712        5.61874089891372       -0.50479763155644
O            1.94419007095384       -5.77696607396319       -1.12965547716490
H            1.17798766794614       -6.35644656891887       -1.15164006952145
H            2.71349290308510       -6.35684708121874       -1.12785928149947
O           -5.42267591427899        3.48714841163258       -1.79203406749671
H           -6.20313792594713        2.92361024155622       -1.77573124702362
H           -4.66929337921039        2.89247436205827       -1.77862839448445
O            5.95922267037542        1.65440286361992       -2.45448753770264
H            5.16410664027286        1.11375327653351       -2.37828367674282
H            6.70310500317105        1.04291566535625       -2.42764908598030
O           -3.30158982361145       -4.39966378545280       -3.02539839420239
H           -4.09031036904864       -4.95078639675616       -3.09312356991884
H           -2.55410976039173       -5.00146549814001       -3.11620562702238
O           -0.67421669571712        5.72025523778165       -3.72474600726244
H           -1.45698041638942        5.16135910859862       -3.74707043699744
H            0.07877337545656        5.12292979917135       -3.74326707462265
O            3.78506717674681       -2.83248646264635       -4.40921348391484
H            3.01210297052428       -3.40208696260617       -4.33987224696837
H            4.54975084325681       -3.41808955871522       -4.36355247385578
O           -4.28019978546716        0.17493031015108       -5.04126621153856
H           -5.04929918767553       -0.40440860416154       -5.01012430293805
H           -3.50980729204593       -0.39913372334057       -5.01512546523299
O            2.42880608785316        2.75593729162841       -5.70726788085303
H            1.65892085942105        2.18101021744802       -5.66348626623836
H            3.19319471188343        2.17184475097808       -5.66660249385305
O           -0.08732632449892       -1.67829569456689       -6.33012745401867
H           -0.84679376610310       -2.26762998036529       -6.33372338632498
H            0.69098269603837       -2.24488746227352       -6.32377880526208
80
 energy: -146.913389966631 gnorm: 0.044677230338 xtb: 6.6.0 (conda-forge)
C            0.98489999999935       -0.90610000000090       -0.14630000000070
C            1.98337599350209        0.13742757550204        0.22018783426316
O            2.56115811853540        0.85958261361736       -0.56854418285899
O            2.22436224783772        0.19199149708266        1.51709123103387
C           -0.49790310875061       -0.49810602309133        0.28967681965529
C           -1.11071946344239        0.48091662230858       -0.83895715740893
C           -0.42501772359682        1.79948206013553       -0.89046968201014
O            0.34332185838087        2.15005226949961       -1.76383838759789
O           -0.77414978756797        2.61242779634084        0.09838140164343
C           -1.35205034215789       -1.79284067300467        0.05570771840395
O           -2.20099025465642       -2.17902531025897        0.82654285285502
O           -1.09301082228831       -2.46049098121714       -1.06674196239763
O           -0.61067803541108       -0.05531548162546        1.50555595175663
H            1.20708347096865       -1.80998460394080        0.41692475312479
H            1.03745668588747       -1.07913242310647       -1.21825246617596
H            2.85163784000488        0.90849593685387        1.71949661824384
H           -2.14246995504348        0.62311844591272       -0.52563857512828
H           -1.03858674534064        0.01264968575191       -1.81791417502102
H           -0.29155640061468        3.45466910486006        0.03969853775865
H           -1.69843111727878       -3.22481111577569       -1.15551809072337
O            2.07964920821105        0.36004062463442        6.10711297302529
H            1.26336924206333       -0.14445791049725        5.94433579927148
H            2.80175190383719       -0.27336529868312        5.98597033074577
O           -2.53522515442848       -1.98222764752475        5.47708626676257
H           -3.30179535518495       -2.55961467383056        5.33278910741178
H           -1.76497212386186       -2.54994468715738        5.30046421562272
O            0.36484454177637        4.61487157543105        4.71444392548235
H           -0.39159628114120        4.02077117377822        4.73729873950308
H            1.14635542691975        4.05392353426911        4.71736667361819
O            3.06371240595038       -3.57893564938761        4.05702770658385
H            2.24961932117903       -4.09187675651619        4.05692069787513
H            3.79065394109320       -4.20940854452406        4.10920103621477
O           -5.34509282564162        1.31728602555438        3.44860639876658
H           -6.09025510391989        0.70746049177349        3.40343972629955
H           -4.54484222141085        0.78177931551205        3.37309471452660
O            4.94320294668224        3.45168160195721        2.77574219514556
H            4.14994735966815        2.91183759541973        2.79154743595222
H            5.69206133891281        2.84729143626486        2.74428521341999
O           -1.56601622527829       -5.55657314824054        2.08270186339717
H           -2.37594359355402       -6.07964841183997        2.12203516138858
H           -0.83339636229647       -6.17849192385419        2.14194159315711
O           -2.89025931157320        5.92833659323443        1.45213119626044
H           -3.67380370736572        5.37018796691770        1.49469668813690
H           -2.13677088321437        5.33315978143582        1.46320492392475
O            6.05950069754364       -1.86212535944320        0.82971430607159
H            5.26687452228925       -2.40360493719430        0.76766184022463
H            6.81155891066415       -2.46356144678687        0.81354876566803
O           -6.00046241974180       -2.12032377604094        0.09396290589759
H           -6.74425544589000       -2.73324056515260        0.17279400086925
H           -5.19479539504037       -2.64484131044768        0.24999599857491
O            2.79643292920041        6.23050841069693       -0.46611131830827
H            2.00598554688508        5.68595032635573       -0.48809423026236
H            3.54362359039568        5.62503457398912       -0.53051408584534
O            1.95587663502636       -5.79453450400928       -1.12622700499376
H            1.20067570615538       -6.38803878876794       -1.17509372369654
H            2.74123619159287       -6.35334717032208       -1.12041536099421
O           -5.43935665312269        3.48042626410688       -1.80602905884363
H           -6.22339843720304        2.92246588936568       -1.76923867237205
H           -4.68490256634431        2.88757678788069       -1.77637629071967
O            5.97504299535656        1.65784747464721       -2.48140502688873
H            5.16220500236874        1.14667904455910       -2.32638282078043
H            6.70388548525534        1.02883758590994       -2.42614998432057
O           -3.29413534066411       -4.41885914543371       -2.97057859181459
H           -4.09672330857490       -4.94791120980284       -3.11118554349277
H           -2.55759601811756       -5.02900785296370       -3.15655938391908
O           -0.67034204412244        5.72862824970619       -3.72314381171594
H           -1.46027985879359        5.18030054130695       -3.77443956671618
H            0.08028926333327        5.12902836255465       -3.76809848530827
O            3.78791801460050       -2.84200844712082       -4.45655971738198
H            3.01981903516617       -3.41440112930999       -4.30057551983402
H            4.56195782774451       -3.41383553472426       -4.35336265977908
O           -4.30310438327606        0.18161984732657       -5.07124487119684
H           -5.05777033281601       -0.41567200848907       -4.99570215182645
H           -3.51222003607718       -0.36533980910258       -5.01114190922874
O            2.41865984367354        2.75498423892571       -5.75647947043556
H            1.65696392872843        2.17080916180228       -5.65855576008491
H            3.19578989924417        2.18849322991525       -5.66580718616659
O           -0.10284391104411       -1.68402777987987       -6.34738554738713
H           -0.83960015655844       -2.30297336399384       -6.35599567466347
H            0.70407007828044       -2.21329040834705       -6.33152298080884
80
 energy: -146.917433513675 gnorm: 0.040529010227 xtb: 6.6.0 (conda-forge)
C            0.98489999999941       -0.90610000000073       -0.14630000000068
C            1.97669805146929        0.13095192826803        0.21363013627208
O            2.54745156545888        0.88154509293362       -0.56375453918489
O            2.21584088111569        0.16065843145146        1.51292605302522
C           -0.49465491779139       -0.47929447006597        0.32342164386660
C           -1.11579960567014        0.47249529676938       -0.84588544828360
C           -0.43956995947436        1.78709038784593       -0.89308838426681
O            0.34021513542730        2.16046205009972       -1.75550450760662
O           -0.78851393965777        2.57492744600502        0.11887118691012
C           -1.35412765507287       -1.77095324611765        0.05781809216673
O           -2.24476485154735       -2.16477636407539        0.79169501032771
O           -1.06879322194910       -2.40226754902719       -1.07485441476521
O           -0.59283179410112       -0.01290736821342        1.52017869789409
H            1.20131895424343       -1.80697060350986        0.42233407144699
H            0.99606153849722       -1.08359262104197       -1.21907389346975
H            2.82561887790919        0.89629328239785        1.70119552879998
H           -2.14445624783030        0.61680562571831       -0.52717093603523
H           -1.03107610307470       -0.02760087373037       -1.80670753619032
H           -0.28077078760836        3.40368519850823        0.06485034298358
H           -1.70646867295499       -3.13879204278412       -1.19147095489428
O            2.09853867933761        0.36517330779980        6.10574830558527
H            1.27512182605128       -0.10748846833440        5.97366494977977
H            2.80831879676807       -0.27372368441313        6.00776413470673
O           -2.55943795365719       -2.00717572505125        5.46926565161858
H           -3.32115221556269       -2.57779430701302        5.36488042244257
H           -1.78729014172305       -2.55192270401484        5.33694857490911
O            0.34136573037585        4.61465465939416        4.72477832838348
H           -0.39630907892533        3.99604879286814        4.77002657375530
H            1.14632446681382        4.08441373068836        4.73288325388181
O            3.10416562031897       -3.59354036627287        4.06306912134671
H            2.26535029727497       -4.06943216493746        4.06299970192194
H            3.80732927511102       -4.25065969749486        4.15398302891259
O           -5.37011819578676        1.34155790221770        3.47238341760598
H           -6.09089969166605        0.70194269116814        3.40684907001012
H           -4.54380222119781        0.84701105736976        3.36354375434124
O            4.98161190473427        3.45303051624670        2.79540993250493
H            4.17462375406688        2.93225762521810        2.82272386562707
H            5.72085709013617        2.83750345771651        2.73578905120686
O           -1.57514190143362       -5.58963910650020        2.06961240452291
H           -2.40700224291287       -6.07895530370742        2.12941227686809
H           -0.86287598358556       -6.23419657608792        2.16997893399061
O           -2.90583574146302        5.94172539955032        1.44811071955272
H           -3.69221616867401        5.38881551476653        1.52741974346079
H           -2.15081857444400        5.34820745128105        1.46510293266226
O            6.07938197652258       -1.87114673748205        0.84080608121900
H            5.27747906042384       -2.39684630935705        0.73712820982285
H            6.82611862144437       -2.47876829949991        0.81570337729531
O           -6.01706879982519       -2.11971045209179        0.10325911653537
H           -6.74209591820867       -2.75216373671982        0.17471114160636
H           -5.19614585015429       -2.60353489804848        0.26004241656547
O            2.82968509188171        6.25037684087917       -0.45050018081615
H            2.02354729647506        5.72742845852279       -0.49163549892547
H            3.56467268744679        5.63256751151715       -0.56782138531764
O            1.97489891630088       -5.81967695107131       -1.12509484952075
H            1.23630641597497       -6.43382385987395       -1.21110183587803
H            2.78071096085683       -6.35065799854834       -1.10677352502252
O           -5.46530690266130        3.47229412569794       -1.82723947386037
H           -6.25203694221810        2.91911201579633       -1.75990265530157
H           -4.70870818912561        2.88224751684162       -1.77514907929061