173
 energy: -266.132975571940 gnorm: 0.039397547099 xtb: 6.6.0 (conda-forge)
C           -2.65476999992014        3.04075000013154        0.68276999993728
H           -3.31295793175044        3.88634458123199        0.74200404299590
C           -2.04679198358013        2.54333977714466       -0.49020359684019
H           -2.14730807980593        2.95532704241412       -1.47816340754558
C           -1.22760219872147        1.43828392804553       -0.12338471787041
C           -2.21486366759171        2.25997359854704        1.77315195298387
H           -2.46468873849734        2.42521566535694        2.80432028619863
C           -1.33575346234253        1.27177478875745        1.28354107891267
H           -0.81303205063939        0.54146862272612        1.87211052562627
C           -5.23690771303525        1.02235323701870       -0.01294584022460
H           -5.91770927978145        1.84730001239721        0.08575265496773
C           -4.53134066802195        0.65754610498829       -1.18129622150133
H           -4.58347659303512        1.15438993246844       -2.13204341870681
C           -3.79238628146046       -0.51216413829831       -0.89464143128853
H           -3.17506835860438       -1.06493953851704       -1.57729923128729
C           -4.93483157880691        0.07710388239238        0.99254716925486
H           -5.35774597032081        0.05760044240726        1.98039593323130
C           -4.04697409646968       -0.87359302989971        0.44293900230661
H           -3.65845491252942       -1.74958848688219        0.92749985119024
Fe          -3.19382073661563        1.05741561663523        0.32227595155837
C           -0.47718820839400        0.56392665139371       -1.06888408078861
H           -0.93380522208949        0.62813649215141       -2.05785362841535
H           -0.54475645327916       -0.46862808541736       -0.72820090415661
N            0.97613533872773        0.90796769659564       -1.21619826988074
C            1.64049490517730        0.78858195981979        0.12188254449953
H            1.22464368603698        1.56891462359558        0.76193323949036
H            1.36882785256619       -0.18683614531362        0.52997563727833
C            1.10576417049672        2.28150443893908       -1.73437954196837
H            2.15793227357293        2.53692613850215       -1.83306712318072
H            0.63026047133704        2.34914235975829       -2.71036740436497
H            0.62246770478169        2.97819615448602       -1.05216450376015
C            1.57581467179423       -0.03638278598677       -2.17401664401950
H            1.05469837165550        0.02633050466317       -3.12647561727535
H            2.62622600833904        0.20397306293077       -2.32096673093936
H            1.49008530253750       -1.05187542536695       -1.79201493449209
P           -0.70002489572221       -3.22225320820774        0.61440884542261
F           -1.37098723271336       -2.77890176720343       -0.78983811220467
F            0.70600210064281       -2.56020291026730        0.13115647586358
F           -0.25706270566864       -4.63652945714647       -0.05441577835247
F           -0.00784692480103       -3.67663760674991        2.00699765416204
F           -2.09840030939196       -3.88588136871345        1.08957695004141
F           -1.12483322716336       -1.81403348629727        1.27436053079693
C            3.14227241484868        0.90308057781643        0.08063173569956
C            3.92190928490013       -0.24444984955049       -0.02921636648248
C            3.77027298207235        2.13943725868256        0.19084316566894
C            5.30237738734570       -0.15470260061889       -0.05476020694193
H            3.44573388498355       -1.21248460007632       -0.08163517824183
C            5.15177087466784        2.22763733374216        0.16270668323087
H            3.18405970565983        3.03640341414733        0.31960307702247
C            5.91969188914603        1.08261428801937        0.03255769672833
H            5.89340839876885       -1.05388714691500       -0.13883705863421
H            5.62824821802862        3.19160506664163        0.25163537504714
H            6.99632876018815        1.15099302797363        0.01396744002688
C            3.79519097860713        1.48343623532371        5.43793852606373
C            4.16754478732106        2.51012700803396        6.36369294054212
N            4.46454158383576        3.33394607969479        7.10174970523470
H            3.46505545429480        0.60194418767616        5.98566032313311
H            2.98149410796287        1.84120112091815        4.80939887302680
H            4.65094946861352        1.22403134250900        4.81600214985015
C           -3.04669515667679       -0.45243951074277        3.74118391292147
C           -1.85913685006801       -0.50238600825615        4.53575667220606
N           -0.90820669560044       -0.53545393858787        5.17346583355025
H           -3.67529440102223       -1.30831215683752        3.97916430342727
H           -3.58863226086837        0.46726822558145        3.94854269738162
H           -2.78010578972071       -0.48006069890235        2.68513491624091
C            2.89237421709802        7.89299945138794        4.89628068524003
C            2.41050989829661        6.83692834019287        4.05761487817291
N            2.02190493882420        5.99470923933208        3.38661659348623
H            3.18327390809028        7.48427437954722        5.86319556483669
H            3.75321892889087        8.36542444223105        4.42496968578841
H            2.10526333765055        8.63335806153712        5.03413196365278
C            2.16315972754512       -4.50311258473419        4.60553793890629
C            3.36552236032774       -3.85555596281813        4.17732111532190
N            4.32845622896532       -3.33987973328613        3.83368467882059
H            1.86820896621904       -4.11780741127114        5.58024194878201
H            1.37287887567251       -4.30122475388275        3.88360266776968
H            2.32835749616407       -5.57762352869895        4.67005922767518
C           -9.24623182093497        1.82025062267875        7.64473260259776
C           -8.31045708556608        1.52622764854605        6.60003364980924
N           -7.56452059598919        1.29289202293355        5.76375698183572
H           -8.70608456875912        2.12788883003988        8.53921695060964
H           -9.90627070360564        2.62500277733669        7.32344663812108
H           -9.83625321423199        0.93127347249315        7.86409419234491
C            8.00271738853800        5.34182823884921        4.24568159492715
C            8.48755393333334        4.03544326450357        3.91506235629756
N            8.87291809548830        2.99133065544073        3.64614897597051
H            8.10424941990129        5.50502087664363        5.31777264011908
H            8.57793427828857        6.09183830094654        3.70439324209605
H            6.95322487533688        5.41754231545646        3.96528125306238
C           -2.60953506970128       -7.12261336065464        2.43367539485805
C           -1.38955260388236       -7.87152871738101        2.41495556463183
N           -0.41536037088985       -8.47316430911486        2.40356539270146
H           -2.95725382366137       -7.01922081370648        3.46038684491365
H           -2.43140070564160       -6.13457656577623        2.01076230608229
H           -3.36408842220279       -7.63852708254779        1.84197565329965
C           -1.95021988574268        8.40779179416982        1.15486427340101
C           -0.88097110187651        9.36045641116354        1.14262412597913
N           -0.02510506948332       10.12119705593697        1.12597418963951
H           -1.89397787232967        7.80963950409712        2.06318292233855
H           -2.90382156034191        8.93292272367258        1.12032905693572
H           -1.86272533536703        7.75749503610754        0.28585541339420
C            9.29706936497210       -2.28220412495488        3.61474613974186
C           10.31363247011225       -3.23858727930827        3.93712571333259
N           11.12706735969019       -4.00325230779262        4.19171391523346
H            8.70123012476904       -2.07140781703730        4.50165800981686
H            9.76211182827410       -1.36227772499445        3.26340803172162
H            8.65261140504986       -2.68740877415302        2.83612999785965
C           -7.98236631468070       -3.87572850898230       -0.84060675628396
C           -7.34362966183872       -5.14963061186231       -0.69454633762997
N           -6.83986761933715       -6.17128601155914       -0.57794969000881
H           -7.99839642979621       -3.36664421531814        0.12196144183292
H           -7.42907284562703       -3.27387993741627       -1.55986285360280
H           -9.00238769197569       -4.02155497383924       -1.19362083813795
C            3.81769786698038        7.78540497819201       -1.26834373867174
C            4.91481726698845        7.78250656027435       -0.34798489631569
N            5.79311413668249        7.77921156706097        0.38670283178513
H            2.95897201310235        7.29814587298067       -0.80944401711989
H            3.55948822264432        8.81413304979691       -1.51608862555779
H            4.09993515702438        7.24998989770662       -2.17402392785757
C            2.88006676593890       -6.15974232742440       -0.63978784008075
C            3.19971173669488       -5.50974094342024       -1.87412501970363
N            3.45211265872748       -4.98350343938353       -2.85933271205707
H            3.70100650485879       -6.03353089795168        0.06431079199383
H            1.97712757774512       -5.71188967749311       -0.22592174697281
H            2.70792295694449       -7.22069640283584       -0.81368796103520
C           -5.70497089818056        5.80522971478362       -3.44438530784927
C           -5.39259318213226        7.15597143300217       -3.08642375561378
N           -5.14130777239546        8.23585653022990       -2.79952121189765
H           -5.98089851155996        5.24608414332182       -2.55183500683666
H           -6.53715861120335        5.79865935285569       -4.14700248490200
H           -4.83630136179963        5.34304576058829       -3.91096691087064
C            9.23965001765787        4.61312757286290       -2.51365946527882
C           10.16252204777807        5.15913240302415       -3.46450149676577
N           10.90014794800914        5.59519989927370       -4.22389883097059
H            9.76598490846974        3.92539018658598       -1.85301456627582
H            8.80646119283875        5.42109121988974       -1.92573181145550
H            8.44861866026514        4.08166091808125       -3.04081809802740
C           -1.99442791450443       -5.83421925592793       -2.94590294342951
C           -2.46458628833788       -4.95202390494649       -3.96977039922966
N           -2.84090612679009       -4.24987298410030       -4.79224484070758
H           -1.60381941414539       -5.24723100441919       -2.11539007404006
H           -2.81631390386017       -6.45472277352705       -2.59209156720894
H           -1.20207877327481       -6.46692654336525       -3.34296051452961
C           -0.41688717306372        9.07925438694642       -4.45303069948880
C           -0.39700922177984        7.67743481325469       -4.15986024503337
N           -0.37548619917445        6.55792180091915       -3.92126471583802
H           -0.41548972464631        9.64500550207316       -3.52202209814544
H            0.46300563634135        9.34153476154366       -5.03933612913747
H           -1.31577274537357        9.32060899954349       -5.01885174305021
C            5.09113727373574       -1.46034033596520       -6.19672548355091
C            5.02917814771967       -1.20060392651616       -7.60381053838343
N            4.97443134159123       -0.99085371196438       -8.72829870821087
H            5.41272657763213       -0.55990186154065       -5.67531921818855
H            4.10624800301340       -1.75781710624767       -5.84013111828897
H            5.80035429725140       -2.26468665535796       -6.00615605095811
C           -5.62099213438099       -0.54076224774870       -6.82051017822144
C           -6.16180743656653        0.74074313139933       -6.47886624354962
N           -6.58923640846212        1.76638437715834       -6.20276362777455
H           -6.03944943221766       -1.30126495300524       -6.16272176086189
H           -5.87029885616045       -0.77743042148174       -7.85393325677837
H           -4.53857708061300       -0.52035462597749       -6.70227810616703
C            3.04024189345663        4.00755577068369       -7.38158013013937
C            3.85326281418328        3.94689234366839       -6.20451339003867
N            4.49734312708114        3.89660100448466       -5.25906197088314
H            1.99323488094874        4.09355216010959       -7.09368653424768
H            3.32723820388238        4.87184965503111       -7.97904383601861
H            3.18171863692325        3.10022677461644       -7.96740057432994
C           -0.18854055661415       -2.04232144333908       -8.96679979006848
C           -0.08232666417374       -0.95770678116519       -8.03799639945645
N           -0.00195940162533       -0.09030191342145       -7.29502502519765
H           -0.45286997775280       -2.95267709067566       -8.42998781795121
H           -0.95911988773945       -1.81730270285563       -9.70300699718666
H            0.76607626853347       -2.18236322742121       -9.47220628904378
173
 energy: -266.134786043498 gnorm: 0.018839716517 xtb: 6.6.0 (conda-forge)
C           -2.65326317863609        3.03243582603060        0.68359496068350
H           -3.31410782249501        3.87688857551056        0.74070862406915
C           -2.04327782678215        2.53587719732220       -0.48795798985550
H           -2.14902718016411        2.94470496677027       -1.47705974761038
C           -1.22192741218818        1.43318491389284       -0.11979877315348
C           -2.21049684352079        2.25486928760492        1.77499291447607
H           -2.46299693633722        2.42085125871193        2.80543966060642
C           -1.32778785258334        1.26906939201557        1.28738538712208
H           -0.80615827409812        0.53954249027348        1.87729124114255
C           -5.23063557121709        1.01995603884240       -0.01196487473742
H           -5.90691458810226        1.84936787406373        0.08704078699210
C           -4.52672302175110        0.65378068421830       -1.18038764106205
H           -4.57700955640910        1.15436062091510       -2.13008375856036
C           -3.79409207222701       -0.52056485351120       -0.89587509611175
H           -3.17997913280207       -1.07481128328244       -1.58001528730499
C           -4.93427371410732        0.07079559570493        0.99163218603336
H           -5.35718177165093        0.05401493620887        1.97979118169029
C           -4.05085053310531       -0.88346218131570        0.44092213595905
H           -3.66477977907659       -1.76044662279506        0.92435099977730
Fe          -3.18532216113620        1.04293967905809        0.32608487406967
C           -0.47872866120838        0.55398114472757       -1.06395875818047
H           -0.93687793585802        0.61862671160031       -2.05191498376643
H           -0.54665936672998       -0.47744457807889       -0.72073336355502
N            0.97446230979298        0.89704255406883       -1.21390165080002
C            1.63896284639237        0.77884665094591        0.12336861756196
H            1.22070636081896        1.55863172068142        0.76273031192162
H            1.36873592986515       -0.19739964858586        0.53032222959618
C            1.10615693322553        2.26895078884749       -1.73229553720731
H            2.15777922560960        2.52875619644470       -1.83323183178930
H            0.62986826654438        2.34306165882748       -2.70778359855599
H            0.62324536104144        2.96713989293882       -1.05099122799933
C            1.57290468384897       -0.04853965669555       -2.16957367981800
H            1.05383768589461        0.01354336966387       -3.12405802782945
H            2.62417179373473        0.18955137594781       -2.31787763352832
H            1.48522738312363       -1.06346053188894       -1.78588488810420
P           -0.69785866134803       -3.20012202097588        0.60530422913154
F           -1.36821007582361       -2.74993390003092       -0.79946509333478
F            0.70164821426176       -2.52148300514962        0.11631065914168
F           -0.25015184484257       -4.60918636772564       -0.06732905361908
F           -0.00227627008751       -3.64179773162098        1.99796681056271
F           -2.09740647517667       -3.86101055817370        1.07736707346329
F           -1.13116434519817       -1.78471168423368        1.25507958123970
C            3.13960046028081        0.89896823144289        0.08040583731333
C            3.92070688703211       -0.24735531807161       -0.03031548736896
C            3.76571854037208        2.13671372578980        0.19150638806876
C            5.30080622347934       -0.15462346013189       -0.05523626678311
H            3.44671330434372       -1.21631379991576       -0.07716455836149
C            5.14711379920702        2.22716720677547        0.16393057749467
H            3.17839972411247        3.03357099161096        0.32574466387797
C            5.91635537948299        1.08326783986472        0.03399622599205
H            5.89344920845336       -1.05248901051992       -0.13597014118083
H            5.62233874088642        3.19199216809217        0.25505030135342
H            6.99299483304979        1.15420514483753        0.01989984333467
C            3.79352226333817        1.48400347585915        5.43690004584978
C            4.16634890105357        2.51873641985321        6.35611415929212
N            4.47190026235035        3.34734094206221        7.08241352024612
H            3.46428246214200        0.60422789260863        5.98796590372811
H            2.97885866604161        1.83676459130029        4.80607276347902
H            4.64820562477628        1.22086094848974        4.81481267154722
C           -3.04513640444688       -0.45770948326300        3.73973226021772
C           -1.85447599605768       -0.49668507496107        4.53380088799314
N           -0.89727160699802       -0.51682031901947        5.15948714986715
H           -3.66842166718106       -1.31630902572142        3.98097502562477
H           -3.59472104891920        0.45894741835187        3.94486355740271
H           -2.78012521788435       -0.48881029329048        2.68404918883804
C            2.89172799718480        7.88574368482515        4.89052930452891
C            2.40707925022574        6.83113335079341        4.04931736030416
N            2.02462683773114        6.00026210759621        3.36272389876607
H            3.18294072626382        7.47550436296121        5.85694125972537
H            3.75317140508688        8.35874690124471        4.42047249860228
H            2.10679430875144        8.62810969886738        5.03135397530449
C            2.15947363605845       -4.49680882744205        4.59187463435379
C            3.36216648213124       -3.84753418013807        4.16531405557572
N            4.32852812835724       -3.33223111028016        3.83302168224996
H            1.86268083263466       -4.11272294350859        5.56702210635786
H            1.36948953209795       -4.29583790977717        3.86897884392170
H            2.32495701003562       -5.57150829392045        4.65779738137255
C           -9.24278716420110        1.81861949538457        7.64175217068443
C           -8.30719994530719        1.52526578332908        6.59399597006196
N           -7.56127228110136        1.29717150865573        5.75887671774229
H           -8.70333347048429        2.12593885406605        8.53684136997600
H           -9.90467654710441        2.62337066870237        7.32377728209391
H           -9.83330022607827        0.93027646778533        7.86259347311447
C            7.99922293874843        5.33797999358953        4.24477175611928
C            8.48004056667400        4.03008337884764        3.90588380141499
N            8.85894980087367        2.98725395713369        3.63095526672798
H            8.10255359992614        5.49750609677886        5.31731350232218
H            8.57513666765073        6.08998965508916        3.70659041257812
H            6.94912679214806        5.42022939727505        3.96690061684068
C           -2.60194386357543       -7.11131687611992        2.42637008242991
C           -1.38199615314895       -7.86277440554641        2.41189786180331
N           -0.41321948112318       -8.47037700199868        2.40016909959403
H           -2.95343759791481       -7.00793118637855        3.45228834414442
H           -2.42134197876887       -6.12349730411940        2.00391974362225
H           -3.35779036796181       -7.62573273237990        1.83412766999982
C           -1.94944014904409        8.40567436793045        1.15219039166829
C           -0.87667291558320        9.35730535296113        1.13524732249086
N           -0.01438499065054       10.10721386040453        1.11660581051378
H           -1.89182625681672        7.80777002730168        2.06091744407261
H           -2.90298316785662        8.93133381886580        1.11988563495322
H           -1.86831272208476        7.75339666094998        0.28351417960212
C            9.29376761098748       -2.28160268393122        3.61626072505589
C           10.31316665831748       -3.23876857629517        3.93667352484938
N           11.12771806759269       -3.99951120571419        4.18913232858441
H            8.69779095888246       -2.07212348760017        4.50331674285692
H            9.75564168174489       -1.35920503968771        3.26601495671578
H            8.64693570918667       -2.68539264884952        2.83852929876849
C           -7.97526187288951       -3.87544746168157       -0.83930375250113
C           -7.33805317228781       -5.15303895935373       -0.69302600739952
N           -6.83752365599718       -6.17346375162269       -0.57814119224074
H           -7.99221874150441       -3.36500158641693        0.12265516587254
H           -7.42062237478253       -3.27228715082064       -1.55674011860158
H           -8.99584127245852       -4.01720253763188       -1.19353324895432
C            3.81762543590679        7.78515661720211       -1.26389880999449
C            4.91812171599561        7.77755909213007       -0.34408000678590
N            5.79020270291355        7.75469368971010        0.39448804427827
H            2.95660935496719        7.30124299256876       -0.80474357034433
H            3.56104993054652        8.81432082928537       -1.51164823571457
H            4.09548480047713        7.24998950028617       -2.17153753219374
C            2.86764551174349       -6.14934136800160       -0.63857935865739
C            3.18593446592176       -5.49678746614268       -1.87225732936311
N            3.45639559145014       -4.96222428736156       -2.84784602774705
H            3.68845896175566       -6.02320395299845        0.06631501278873
H            1.96278397347006       -5.70578779356385       -0.22380023170197
H            2.69975118430814       -7.21112960376607       -0.81342868384171
C           -5.70337805395030        5.80290821927993       -3.44629240273943
C           -5.38102656514551        7.15267280012140       -3.08568784175020
N           -5.12287481179037        8.22713695476022       -2.79289971807925
H           -5.98136994579763        5.24227594321637       -2.55490839196601
H           -6.53609490180698        5.79943866495862       -4.14828667154969
H           -4.83807987091298        5.33542280389910       -3.91419945148241
C            9.23731623191024        4.61419433716656       -2.51290737051106
C           10.16159438469827        5.16100484289109       -3.46540468493103
N           10.89733923815989        5.59605605523689       -4.22327703584359
H            9.76212863296850        3.92509761293291       -1.85220610308733
H            8.80355174102394        5.42088987629993       -1.92302490673441
H            8.44491344634530        4.08304307147122       -3.03900409511841
C           -1.99447989649744       -5.82160272043713       -2.93863044429115
C           -2.46368737335906       -4.94083280535690       -3.96438241855305
N           -2.83626802033815       -4.23994967863198       -4.78934388608554
H           -1.60412053915862       -5.23519561549677       -2.10745562256914
H           -2.81679214968721       -6.44258588886671       -2.58558403662205
H           -1.20213413789624       -6.45585122113837       -3.33435125541151
C           -0.42070704294172        9.07462374391159       -4.44799751238684
C           -0.39742991267301        7.67319759296075       -4.14827261603303
N           -0.36889422701399        6.55504441879009       -3.90976548286591
H           -0.41854120288036        9.64472925293076       -3.51955960248739
H            0.45731545318351        9.33773014190571       -5.03716531133527
H           -1.32114173309881        9.31295675559955       -5.01273246830887
C            5.08830781218291       -1.46233173643796       -6.19547642370851
C            5.01664238472918       -1.19971224573354       -7.60354130958401
N            4.95563786663035       -0.98344310698532       -8.72419795863834
H            5.41134209430473       -0.56229610842769       -5.67353929331945
H            4.10668550697824       -1.76320082506305       -5.83158670152489
H            5.80007043181140       -2.26530349713659       -6.00888774377641
C           -5.61776315690841       -0.54086721929394       -6.81738825125334
C           -6.15283805935845        0.74310337969197       -6.46949414148209
N           -6.57493767614146        1.76755058305615       -6.18733734422783
H           -6.03607906246862       -1.30289794277748       -6.16123081964429
H           -5.87082590948911       -0.77505426108764       -7.85060742072323
H           -4.53453060717927       -0.52712044701526       -6.70303287619841
C            3.04251579307074        4.00244557422300       -7.37901138152722
C            3.84448775497431        3.93817579399269       -6.19295304282896
N            4.47621195105342        3.88765936637005       -5.24095416465237
H            1.99282504777142        4.09117611236516       -7.10097078860949
H            3.33528458477551        4.86675823216799       -7.97388360946824
H            3.18526253549881        3.09506910765586       -7.96481563701823
C           -0.18516166955200       -2.03853337744861       -8.95874597019994
C           -0.07772368550752       -0.95369818462613       -8.02844045031347
N            0.00420936929710       -0.09118167176568       -7.28185736821785
H           -0.45228018895903       -2.94914541982107       -8.42346564129924
H           -0.95437651859403       -1.81348388429089       -9.69677610140493
H            0.76986327066442       -2.18062694118537       -9.46347981660409
173
 energy: -266.136772943918 gnorm: 0.033676639463 xtb: 6.6.0 (conda-forge)
C           -2.65015316812564        3.01540530112434        0.68642880489957
H           -3.31633957540860        3.85703481298328        0.73914569905636
C           -2.03696679871179        2.52000523758189       -0.48248251146305
H           -2.15332001754212        2.92176915630673       -1.47390858650980
C           -1.21141483709689        1.42234605587854       -0.11148968890963
C           -2.20185087231058        2.24437987811918        1.78003369231577
H           -2.45899382088602        2.41233889893712        2.80909478870724
C           -1.31194374342957        1.26379079993597        1.29645159702188
H           -0.79050590384288        0.53791892368838        1.88979274864488
C           -5.21876994754371        1.01262216511573       -0.00996226284132
H           -5.88482822449639        1.85142391506093        0.08983337120135
C           -4.51743799080543        0.64401701184337       -1.17834662964257
H           -4.56289245674196        1.15246869263528       -2.12535288281580
C           -3.79701923712196       -0.53895541726263       -0.89784939975247
H           -3.18901816383525       -1.09596749220273       -1.58481935885165
C           -4.93375907809194        0.05606908533685        0.99005958716171
H           -5.35719167591084        0.04445702460453        1.97850187251431
C           -4.05962186407421       -0.90528865113867        0.43684854621021
H           -3.67977909749380       -1.78529450844687        0.91754805779491
Fe          -3.17043110169658        1.01486609571285        0.33453621649472
C           -0.48097699782033        0.53526437558627       -1.05405069572571
H           -0.94257298035787        0.59929213300967       -2.03987621430213
H           -0.54981031875041       -0.49351863578761       -0.70621074703696
N            0.97253709917968        0.87451422827600       -1.21002768806268
C            1.63653244684883        0.75908431761619        0.12631240883662
H            1.21251935350323        1.53671750394741        0.76485263064552
H            1.36989756894422       -0.21879257084843        0.53088694928377
C            1.10715698176671        2.24257754629089       -1.72886244376493
H            2.15805637219302        2.50830107629387       -1.83418249289900
H            0.62883064026658        2.32662705407364       -2.70345486337281
H            0.62590290640502        2.94396224273561       -1.04854299602909
C            1.56697968186147       -0.07491487788206       -2.16094325078716
H            1.05127213776131       -0.01397918772533       -3.11870022395894
H            2.62006975382105        0.15727183910064       -2.31186873790425
H            1.47406181178532       -1.08822834035097       -1.77362489796397