53
Ferrocene_NH4+pf6_p1_secondrun.log	Energy: -1904860.1256985
C         -2.48294       -3.12225       -0.58821
H         -3.26654       -3.86347       -0.63858
C         -1.75936       -2.73831        0.58081
H         -1.91162       -3.12377        1.57900
C         -0.80931       -1.73382        0.21716
C         -1.96914       -2.35836       -1.68043
H         -2.31502       -2.39694       -2.70293
C         -0.95289       -1.50176       -1.18416
H         -0.44575       -0.73192       -1.74269
C         -4.81100       -0.79564        0.09005
H         -5.55145       -1.58189        0.10787
C         -4.06669       -0.30443        1.21043
H         -4.14340       -0.66052        2.22748
C         -3.20898        0.73651        0.74615
H         -2.47386        1.28549        1.31615
C         -4.39999       -0.04950       -1.05814
H         -4.75486       -0.19547       -2.06819
C         -3.41958        0.89323       -0.64703
H         -2.85649        1.57038       -1.27045
Fe        -2.80449       -1.11248       -0.21237
C          0.04034       -0.97741        1.19693
H         -0.25702       -1.24512        2.21313
H         -0.09766        0.09212        1.06842
N          1.54242       -1.22139        1.12387
C          2.06431       -0.90075       -0.30580
H          1.66459       -1.69953       -0.93105
H          1.59432        0.04552       -0.56447
C          1.86137       -2.63549        1.49180
H          2.93944       -2.77787        1.43669
H          1.51310       -2.82432        2.50836
H          1.36092       -3.30833        0.79431
C          2.16995       -0.28514        2.12775
H          1.73964       -0.49682        3.10738
H          3.24341       -0.45958        2.14151
H          1.95208        0.73762        1.82373
P         -0.00584        2.71656       -0.05373
F         -1.53779        3.15052       -0.28560
F         -0.36166        1.24989       -0.78046
F         -0.45123        2.00898        1.37900
F          1.50741        2.13325        0.21295
F          0.33739        4.05731        0.70427
F          0.43696        3.28761       -1.46209
C          3.55813       -0.82318       -0.41878
C          4.19900        0.41772       -0.31141
C          4.31740       -1.96941       -0.68314
C          5.58271        0.49840       -0.43419
H          3.61009        1.31270       -0.14691
C          5.70096       -1.88538       -0.80316
H          3.82440       -2.92789       -0.81942
C          6.33462       -0.65088       -0.67234
H          6.07241        1.46235       -0.35425
H          6.28111       -2.77716       -1.01190
H          7.41232       -0.58287       -0.77118
