53
 energy: -95.090282188311 gnorm: 0.000632160006 xtb: 6.6.0 (conda-forge)
c           -2.50267491103914        3.11180312750956        0.55574163860647
h           -3.16912929175921        3.96069341724460        0.62503463996053
c           -1.83711258879801        2.67956949186267       -0.61596563637087
h           -1.90908621687527        3.13363838558730       -1.59582464829813
c           -0.96346337401893        1.61565337487100       -0.25573953124189
c           -2.04332557661549        2.32508441378302        1.63984523973344
h           -2.30318724107735        2.46779513706891        2.67980854241368
c           -1.09912644028534        1.39492066670595        1.14515845561836
h           -0.54340417372342        0.68133889616279        1.73662859946494
c           -4.90091398461614        0.76843615790394        0.02258273714069
h           -5.73621737207320        1.45208297513009        0.10180199595889
c           -4.23709732971788        0.40231890367039       -1.17639772977403
h           -4.47762763755247        0.76213759476231       -2.16851084265633
c           -3.29532184173418       -0.61012768788244       -0.86306080850970
h           -2.67926742740197       -1.15179421805247       -1.56929632800593
c           -4.36595437190014       -0.01787786776024        1.07495724567593
h           -4.72110486140166       -0.03132320460369        2.09718031628193
c           -3.37396192551042       -0.86927692196331        0.52655200852506
h           -2.82507634124892       -1.63905599122147        1.05294089514773
fe          -2.88083092455768        1.10641392722422        0.20254582436500
c           -0.07825319318255        0.87367058337672       -1.20792145286704
h           -0.39402875792876        1.04919839006256       -2.23928443223397
h           -0.09599965174400       -0.19546609105937       -1.00904753487574
n            1.38033229543393        1.28271042295613       -1.13829293016622
c            1.90983171978717        1.01902173076894        0.25443214828594
h            1.38658851932334        1.71058749013586        0.91718835088772
h            1.62534174794730       -0.00383031310714        0.50328192509842
c            1.50694372897188        2.71895317059150       -1.48023884392143
h            2.55676236192074        3.00378132548999       -1.44632078179685
h            1.11150994967036        2.87891641342516       -2.48223293707715
h            0.93349919136945        3.30111447419580       -0.76044874432113
c            2.11462620297013        0.46050337232399       -2.13706819554654
h            1.69241567863852        0.64774650377976       -3.12275776589227
h            3.16646398700991        0.73881719549883       -2.12370853635599
h            1.99898641549246       -0.58940918083517       -1.87496700186345
p            0.43440486421700       -2.80445943193358       -0.00244298692069
f           -0.17463094892605       -2.16081551583577       -1.41780340652106
f            1.89019823737527       -2.03163090016743       -0.35318080532829
f            0.93093136866875       -4.11693781535187       -0.81149153862720
f            1.06823030138355       -3.35251435935284        1.38652934030240
f           -1.01364483131352       -3.46693047749438        0.32451077429742
f           -0.04157119639602       -1.39761636489089        0.78249204013561
c            3.40013233775663        1.19616011298141        0.36412481022665
c            4.24456057825124        0.09711214728631        0.20861301959105
c            3.94744942116024        2.44137146627936        0.67136687355854
c            5.61790910467413        0.24991551534775        0.33192524754469
h            3.82387374201550       -0.88104597966071        0.00711002911990
c            5.32231456379120        2.58989402100809        0.79261032015326
h            3.29790974492557        3.29482406470003        0.83770069730500
c            6.15915748437679        1.49632652707163        0.61655309305386
h            6.26660472891099       -0.60995564676024        0.21104503519800
h            5.73870366761820        3.56187090564546        1.03211000324301
h            7.23236541691444        1.61424033815252        0.71333512425438
53
 energy: -95.019003768547 gnorm: 0.127629439088 xtb: 6.6.0 (conda-forge)
c           -2.51849889803743        3.10164270517695        0.46734593687508
h           -3.29107222322725        3.85562605028924        0.40240551760274
c           -1.87538673994266        2.59179511960981       -0.68554575435970
h           -1.99128939330397        2.99976614627100       -1.68134124779753
c           -0.93417799799250        1.58320024909663       -0.33653887872010
c           -2.03268528275494        2.32017367545858        1.54368233892729
h           -2.20231988531531        2.30403514333613        2.61156892255507
c           -1.07976393534397        1.38933215065269        1.06733521451856
h           -0.58143620378339        0.67780049518163        1.71018456678773
c           -4.89027572802165        0.78102967697581       -0.22919467877713
h           -5.69411873349813        1.47048172771602       -0.45251665076006
c           -4.14925349995914        0.09809301576232       -1.22755940653994
h           -4.28463354895810        0.29012124659091       -2.28416252466248
c           -3.30724770085286       -0.84372619106521       -0.58399743375588
h           -2.62919722119223       -1.53713864378964       -1.06474788658325
c           -4.57355073442392        0.22511064721824        1.03674487401845
h           -4.92930447155268        0.47996652492619        2.02656324806361
c           -3.55454868011138       -0.73294842426410        0.80558411539965
h           -3.16067828341798       -1.37061842800049        1.58607340879703
fe          -2.93727047776641        1.06033619828884        0.14249290488523
c           -0.09958724079694        0.96109675070161       -1.41228581110815
h           -0.27798109422387        1.36833083745487       -2.41056926473746
h           -0.11615325303457       -0.12594593501078       -1.38093654788840
n            1.36067145862292        1.29470446264623       -1.17567681734467
c            1.92818403223550        0.92397859784337        0.17712634707985
h            1.34145279492684        1.69604521524901        0.67807750807658
h            1.60029300793991       -0.10626876380840        0.31912971423224
c            1.52018207272061        2.75793528121010       -1.34674014418937
h            2.45911492426052        3.16308546953554       -0.97437592926721
h            1.34861952206884        3.19943624275541       -2.32734785258053
h            0.79700557510073        3.22377381886649       -0.67901383384754
c            2.16843259454599        0.63432430199000       -2.23595226861893
h            1.68236544878223        0.68871348694177       -3.20841625282200
h            3.16296573741769        1.07159812975309       -2.29674061984791
h            2.05060873559520       -0.39311563512769       -1.89702648997235
p            0.47946004311954       -2.71759818755329        0.08945596373599
f           -0.16139246625955       -1.99023874253600       -1.27021441130303
f            1.88512839852783       -1.84742094536892       -0.23689253693978
f            1.12508625689947       -3.92220028510523       -0.77991059545288
f            1.09420773119326       -3.27233849982838        1.48433641739650
f           -0.93124344235981       -3.48547945378918        0.34023197121473
f           -0.10145990765802       -1.41214012397159        0.97274237101295
c            3.42317466711247        1.05968912940617        0.28197018251497
c            4.23380747259422        0.16647916282535       -0.41817263712142
c            3.95779871573425        1.99388856884321        1.16851047363989
c            5.59648080536537        0.41521431704178       -0.34140504141718
h            3.70551098170429       -0.64694334201882       -0.90151610853283
c            5.33218596210514        2.13960201029477        1.29828134689468
h            3.29725298743067        2.57782012583230        1.80148237224361
c            6.16237572810318        1.35627894468604        0.50810282582386
h            6.29545713907859       -0.17761607955750       -0.92000741886202
h            5.67691678009113        2.78574862441105        2.09774011254753
h            7.21297073948833        1.55693023888244        0.68427014340245
53
 energy: -95.037680547804 gnorm: 0.108748805550 xtb: 6.6.0 (conda-forge)
c           -2.74718842032034        3.13091446486095        0.36686362321164
h           -3.65092546911927        3.72484889239302        0.35797893102295
c           -2.04031955613098        2.64743723927141       -0.75976109591828
h           -2.29081090235078        2.98901800993690       -1.75578274771495
c           -1.02384768505731        1.76658811168988       -0.29518268643090
c           -2.23611122631855        2.52789571088672        1.54175819710916
h           -2.55766074163825        2.59433521611976        2.57210271153796
c           -1.18718119669100        1.67874607099877        1.11734999219005
h           -0.60722081799745        1.06739262875342        1.79392671878242
c           -4.69675821438248        0.53356455857455       -0.83653522489291
h           -5.34257970321794        0.92620733728568       -1.61121365085659
c           -3.68308269814055       -0.44476226780409       -1.00262894473592
h           -3.37084791664662       -0.76353760485950       -1.98878535926180
c           -3.21180575005714       -0.93522287071161        0.24136286871905
h           -2.47972357562058       -1.72379196382716        0.35929825602382
c           -4.87934222785118        0.58910293018952        0.56900460297154
h           -5.59507960472301        1.17469024606563        1.13119687985698
c           -3.96304882626664       -0.26296825158476        1.23538195157366
h           -3.94370377293991       -0.53777495695888        2.28181757005762
fe          -2.94310618272141        1.06733685951207        0.18469089955667
c           -0.15300808535530        1.12046620649851       -1.32714726931344
h           -0.46045825231197        1.35674830366171       -2.34885124357490
h           -0.15986822113934        0.03309398831608       -1.34936502629728
n            1.31450798450946        1.50198259654287       -1.30534679816558
c            2.03251122436528        0.86252689062818       -0.13694944503987
h            1.42153634448067        1.22258237369116        0.69272653296974
h            1.70219755085369       -0.16630014685067       -0.28356087127474
c            1.44894878627800        2.97410068760875       -1.20265920294524
h            2.52247374183731        3.15207651721369       -1.21895207073917
h            0.95313015356174        3.34743164109128       -2.09749782930656
h            0.94226913953229        3.26696383368045       -0.28431551405046
c            1.89870956418082        1.03521735901188       -2.59127167693785
h            1.36593625896272        1.69895264335182       -3.26988329756839
h            2.97161143039998        1.21088126247960       -2.63625590690125
h            1.67194908016826       -0.01741475148157       -2.74916816360388
p            0.55529173856593       -2.76412012893180        0.13145369904524
f           -0.09704601407751       -2.21187707427292       -1.30309511324698
f            1.98336694221096       -2.01830755362432       -0.36248973633182
f            1.08724487668996       -4.08799201719051       -0.63541442384165
f            1.23973204954267       -3.27346639017226        1.51110976521892
f           -0.84637412939658       -3.49323736301328        0.51399183108100
f            0.02210642588590       -1.35971416471108        0.88327876664159
c            3.50877144066840        1.01934625577547        0.10895713513811
c            4.44322776046172        0.73994743248243       -0.88797678163421
c            3.91196049635095        1.25821135750481        1.42230673655875
c            5.78571421289902        0.87891389996738       -0.56694800019215
h            4.27131932390890        0.39606786814436       -1.90117399505851
c            5.26811664011615        1.23553528254789        1.71783926700122
h            3.15556339519171        1.35191844083364        2.19498554362583
c            6.22961755160480        1.15109406748731        0.72005280451245
h            6.51155080956421        0.69899643845313       -1.35154180275128
h            5.52564226974258        1.27705970748431        2.77018681347012
h            7.29439938260103        1.22458422143819        0.90948505940942
53
 energy: -95.028726327476 gnorm: 0.106125512213 xtb: 6.6.0 (conda-forge)
c           -2.64368790679767        3.25550125866330        0.35941141168295
h           -3.43148955083197        3.99575111508805        0.39065908718380
c           -2.04057555336325        2.65215387080384       -0.76971413467221
h           -2.24357437374059        2.96425385701926       -1.78601504883782
c           -1.16074759181289        1.62376228607800       -0.33010423791182
c           -2.08220825193251        2.62623962540398        1.49694346444797
h           -2.24788052527556        2.89195023433415        2.53201287645233
c           -1.09895968854066        1.69335370110179        1.09150819607302
h           -0.38263089746865        1.04608569542370        1.57708035921868
c           -3.96953009500767       -0.02553849138363       -1.03712638828847
h           -4.19546283041839       -0.00988595828324       -2.09546934217786
c           -3.00836056556149       -0.77398441772142       -0.31033179129063
h           -2.14071617779949       -1.27607147391457       -0.71863872558046
c           -3.29052358678774       -0.57278560940171        1.06446719973546
h           -2.70174387766702       -1.11397007507025        1.79395476547679
c           -4.92323624718557        0.48210740524545       -0.11804866614323
h           -5.87255183184079        0.95515275815921       -0.33317808805982
c           -4.48632337036217        0.17382359430135        1.19486637197009
h           -5.03417641720979        0.42063169738233        2.09479040173755
fe          -2.99780558316869        1.19889468846588        0.26408454950075
c           -0.22478888918528        0.94287625885328       -1.27939953142928
h           -0.60571908771656        1.02009673323532       -2.30075305747177
h           -0.10458234818003       -0.13447920383572       -1.19122565068361
n            1.18687213583404        1.48620946554923       -1.38726805804046
c            2.12261352557694        0.53058447861625       -0.67962861266932
h            1.56408743231656        0.04018511176246        0.11965203483921
h            2.27735147930747       -0.29936100604183       -1.36979799432582
c            1.25943546609502        2.83050916598537       -0.76812054799754
h            2.25788523321297        3.14333986727366       -1.06750608275224
h            0.41808050428265        3.29635925237339       -1.27905479994789
h            1.07657177538097        2.70387578902935        0.29788746273179
c            1.49590366169661        1.55488515149981       -2.84072849583175
h            0.76356115856116        2.15956961983005       -3.37264654838254
h            2.41524655328591        2.13657276167888       -2.86189384186233
h            1.68846190889394        0.55730839330367       -3.23078991852450
p            0.63275620633728       -2.81596862569896        0.07508434105771
f            0.00698672519271       -2.26198228624669       -1.37058468121545
f            2.13959482650022       -2.35265162715011       -0.52022233095748
f            0.74251699069517       -4.31581702726488       -0.52666725064693
f            1.33037250242671       -3.26965948202124        1.46750637635428
f           -0.86303025128224       -3.05384796654732        0.66555098813162
f            0.47914693073006       -1.26232445948501        0.69514693265587
c            3.42642046915639        0.99997580759297       -0.09297210997115
c            4.52294798906931        1.24232246597869       -0.92004228578582
c            3.61394648667243        0.91940219473853        1.28646510952153
c            5.81522226456483        1.23508319822266       -0.41544754654069
h            4.53637283209187        1.48995934302104       -1.97496883468019
c            4.91226172596737        0.81703719955823        1.76699828511951
h            2.72249556082292        0.79657837081282        1.89324323831006
c            6.01117144682046        0.95169243756502        0.92946765601036
h            6.67670916480963        1.41104604194928       -1.04922503641799
h            5.10862753152471        0.58192805537836        2.80701908233536
h            7.01723687207530        0.73692545788923        1.27115939236659
53
 energy: -95.033362729289 gnorm: 0.108259142613 xtb: 6.6.0 (conda-forge)
c           -2.68857109059307        3.06881801557412        0.46382686719630
h           -3.54548638198512        3.63113874734080        0.80889102895589
c           -2.21327798459327        2.63081907561120       -0.79512129425601
h           -2.66939170325890        2.95255962106638       -1.72244312274024
c           -1.14315002204627        1.72834271152493       -0.53957106499600
c           -1.91368603190391        2.47820042821821        1.49141277059075
h           -1.97396833745675        2.69440264048791        2.54926000219980
c           -0.90889808666780        1.70358102867965        0.86547538233175
h           -0.12392536480883        1.12280303373607        1.32848497840557
c           -3.52963018910119       -0.58479210800015       -0.74181876506598
h           -3.29995329343803       -1.05113308718799       -1.69111061981786
c           -3.15947755187013       -0.93692289874587        0.58152528943076
h           -2.47861629420850       -1.71644789981885        0.89835563633242
c           -3.88088361801313       -0.13418474215229        1.50095660085286
h           -3.86005313079401       -0.31399107844409        2.56816325963804
c           -4.50731566621465        0.43642940910286       -0.62692158817809
h           -5.09221294451007        0.87806448530513       -1.42322949763697
c           -4.76249211217125        0.67706781667099        0.74663431005104
h           -5.52950397377177        1.28218271895476        1.21187534353506
fe          -2.76710382864562        1.05114962703722        0.29419287950732
c           -0.17519869083457        1.30377168142824       -1.59956903497935
h           -0.37752525747141        1.85480333561511       -2.52134011061109
h           -0.18786871801241        0.21752559616162       -1.65274747263978
n            1.30745986873458        1.59220449968299       -1.46479681577084
c            2.09587032799210        0.33853906431608       -1.15444773891791
h            1.55125647997128       -0.28292523194491       -0.44137666266797
h            2.25062436674144       -0.19948048682109       -2.09022188864865
c            1.49059001442305        2.74537677012774       -0.55243294846084
h            2.51758904972271        3.10453199728860       -0.57845594072334
h            0.84847632273651        3.61586583613866       -0.67847694226618
h            1.34625605805201        2.34516174980880        0.44998605953816
c            1.73709414562228        2.13455895368184       -2.78162258318110
h            1.32033377301875        3.10163061639591       -3.05728334051059
h            2.81842173393199        2.23076417205903       -2.85561586549452
h            1.41671906558512        1.42128018253633       -3.53857646604441
p            0.58335175510384       -2.85197126978007        0.16254876545019
f           -0.09579210765657       -2.01152091189963       -1.11057889484370
f            2.11456709159919       -2.52606574154021       -0.46097387411377
f            0.50977392850123       -4.23023809440660       -0.68519205528932
f            1.27529160819482       -3.56154756538976        1.44670753074078
f           -0.89296368914088       -3.14916875188708        0.77474230888307
f            0.67941091766755       -1.35547194373931        0.91961284907176
c            3.40214678822144        0.60387701814732       -0.45613251004538
c            4.46644468277394        1.26282418517025       -1.07111882674879
c            3.52438701389808        0.30146218344498        0.89963580592793
c            5.52405675190193        1.77147066080596       -0.33126984407424
h            4.27712498717846        1.50172020733177       -2.11105199558971
c            4.62573155863873        0.73237695751586        1.62652357146682
h            2.77255367769457       -0.24652109603098        1.45857327440869
c            5.61030323564514        1.50748687876454        1.02901593635519
h            6.25783063958515        2.42842955454859       -0.78379320585703
h            4.66490412323070        0.37341174530681        2.64881931008937
h            6.41269857846397        1.86299419304831        1.66527217108852
53
 energy: -95.038884546486 gnorm: 0.094539453977 xtb: 6.6.0 (conda-forge)
c           -2.12592800785960        2.94351950636139        0.78853789686438
h           -2.70864804661327        3.75316634509071        1.20625436447904
c           -1.84120949813185        2.63003705676763       -0.56178102769879
h           -2.03707298496062        3.34103460962517       -1.35399465942473
c           -1.00962628555159        1.47568305397285       -0.59143796773011
c           -1.49171360684904        1.96970669734529        1.59765437794372
h           -1.41098542612883        1.93464599883813        2.67546318402434
c           -0.79346227063171        1.07098233035181        0.75731443555490
h           -0.01188376012669        0.34314854902570        0.92240879115701
c           -3.18729269738024       -0.90551514498795       -0.15814215775837
h           -2.47238276884598       -1.59753822203617       -0.58403917077497
c           -3.38957512386236       -0.59567811704520        1.21128523764334
h           -2.81781425308120       -1.10728424325876        1.97480434446125
c           -4.40010373081003        0.39388840831302        1.31007401831474
h           -4.75828460099783        0.83826625553390        2.22981804437097
c           -4.07611577384330       -0.09582801883957       -0.91071370712631
h           -4.25792952584374       -0.13287239322735       -1.97693325641090
c           -4.77980041850355        0.74145075017350       -0.00878807207132
h           -5.53181458925760        1.46561714472605       -0.29335472513567
fe          -2.75120785557598        1.03822534358899        0.25804293081560
c           -0.17280566506695        1.09435523722834       -1.77258416487646
h           -0.68191741584099        1.55629508557109       -2.62208439334800
h           -0.21365137866462        0.02641659984890       -1.97446958323818
n            1.23933431821704        1.61735049888660       -1.59378249859469
c            2.17596356773073        0.43101099752324       -1.52371938844045
h            1.61261533119983       -0.35381506630328       -1.01580277098157
h            2.53849022183707        0.18666173745177       -2.52269634996695
c            1.41910697639844        2.63444424238701       -0.53126056626491
h            2.38535967772499        3.13444253002593       -0.50379932215378
h            0.73386720394129        3.43991036274235       -0.79129723381503
h            1.20560380801918        2.31172818768635        0.48663872604718
c            1.57823333199203        2.31096464309379       -2.86532130113026
h            0.89471602641443        3.14110807474257       -3.03435275115927
h            2.61052563262704        2.64755856235137       -2.79406866755398
h            1.39211423357845        1.64299139606619       -3.70410458446552
p            0.51981286433151       -2.75116697835178        0.25743624830650
f           -0.23430972428788       -1.60200252781499       -0.69080813830929
f            2.01931628482578       -2.27177262782833       -0.34363433882682
f            0.37169943358650       -3.84515288267636       -0.92787168145432
f            1.27807366415143       -3.79204381176419        1.24382308478660
f           -0.94290880378471       -3.21667777861104        0.79256201424610
f            0.67184508880915       -1.55422893466328        1.42624296652561
c            3.40675396654971        0.71079299350532       -0.70440039121043
c            4.48848502601423        1.47574186401266       -1.14013048716237
c            3.38680804276190        0.28157923959048        0.62220537860111
c            5.44009703600917        1.92229249870388       -0.23477521414196
h            4.50297505789836        1.75579164901146       -2.18690478280488
c            4.33874907550836        0.66532584389903        1.55684969973247
h            2.65208872061467       -0.48388272319343        0.85069092421640
c            5.30649473986477        1.54712117783302        1.09522486784742
h            6.21577002636763        2.57169101377559       -0.62388893673466
h            4.45003444104843        0.26630192306586        2.55878511889322
h            6.01613319031817        1.91527648081387        1.82729090420311
53
 energy: -95.029126952136 gnorm: 0.129585979043 xtb: 6.6.0 (conda-forge)
c           -2.03612527664000        2.73174170729984        1.05988810019069
h           -2.67791907872283        3.49970229381807        1.46966237440152
c           -1.80006722129486        2.51626232391448       -0.31871348015786
h           -2.19256381845130        3.22435911247740       -1.03706425975787
c           -0.89361236342571        1.42782912255889       -0.45508108339183
c           -1.33595218560448        1.72838861081763        1.77280393754634
h           -1.23877991009220        1.58447810657969        2.84016771780529
c           -0.65896346928332        0.89992601416027        0.84718649374211
h            0.12582362211752        0.21897688322876        1.14430709438283
c           -3.44290504388354       -1.06908486676556        0.44061260393234
h           -2.95133285227188       -1.97700140458550        0.76530438327560
c           -4.08290593132093       -0.22726571894030        1.38612195960475
h           -4.21757581063250       -0.50172726275940        2.42446084108155
c           -4.71955327800790        0.80617431451586        0.65342075859093
h           -5.32453808184579        1.61020694798028        1.05244355466852
c           -3.54225148154672       -0.46478756856726       -0.83880863285495
h           -3.17142551345797       -0.75739792760069       -1.81252313544305
c           -4.38820379025301        0.66610956333495       -0.71586947800200
h           -4.83607394723267        1.24922068555244       -1.50979277510829
fe          -2.61443740135618        0.87752671398786        0.38107777023264
c           -0.20006282889207        1.20255685783876       -1.76237885728659
h           -0.88310793590287        1.65471156413569       -2.48573170040534
h           -0.24450406475930        0.14662599384973       -2.01919399299296
n            1.18326486295176        1.82207902570644       -1.80960343215941
c            2.14795869264803        0.67009636765947       -1.63103620364062
h            1.70338914205142       -0.23010121975250       -1.20290698683890
h            2.57160649858620        0.37035197529564       -2.59007888705321
c            1.40103517732019        2.94822606377459       -0.87145651493066
h            2.30245360719138        3.48541665510409       -1.16001805056137
h            0.53085124874210        3.60154224411072       -0.91511629848575
h            1.49212878983255        2.64606176848810        0.17077517884644
c            1.47850909322682        2.16342464736663       -3.22702292779235
h            0.79560975954804        2.99564963131078       -3.38813073110849
h            2.48047870244021        2.57260314475378       -3.33940464644179
h            1.31556155697649        1.35262567099907       -3.93444012324562
p            0.50036871588009       -2.73045969166193        0.29458245283045
f           -0.18761569321713       -1.39927624354250       -0.44235398274835
f            1.98902912266823       -2.13919423316625       -0.22878228896674
f            0.26574235065646       -3.55898589385792       -1.07734773365786
f            1.27143312298924       -3.99181821061264        0.96224807334695
f           -0.96287610295918       -3.12987066945649        0.87939014760190
f            0.77957943325988       -1.83392750362329        1.68747693317493
c            3.28960824502627        0.96655761457106       -0.69660946363456
c            4.42432172974402        1.66149490811482       -1.11450506368468
c            3.16575207976586        0.49709542899024        0.61058974354081
c            5.50413308627354        1.78310544030394       -0.25203235520935
h            4.50228615482030        2.11717784856674       -2.09463195845458
c            4.23801454160506        0.60974360662098        1.48499045019748
h            2.36214861679904       -0.14408352798113        0.95852799228019
c            5.37439606035295        1.26390015065756        1.02902085533354
h            6.36071751629101        2.38723581649204       -0.52786928120892
h            4.24600350861950        0.12231851578397        2.45340769395632
h            6.31298558011379        1.44873242621995        1.53885651241826
53
 energy: -95.035714981572 gnorm: 0.090293089557 xtb: 6.6.0 (conda-forge)
c           -2.14802102344649        2.64187024390880        1.50815384120238
h           -2.80577771156242        3.24705887540299        2.11698923318444
c           -1.89855779949556        2.81329619366227        0.12573629104373
h           -2.17049351002604        3.58485751910364       -0.58294312611246
c           -0.91517390565520        1.85179825820835       -0.23953222531315