 Entering Gaussian System, Link 0=g16
 Input=phenothiazine_0_gas.com
 Output=phenothiazine_0_gas.log
 Initial command:
 /gpfs/fs1/soft/improv/software/custom-built/gaussian/g16/l1.exe "/scratch/Gau-1094209.inp" -scrdir="/scratch/"
 Default CPUs for threads: 0-127
 Default linda workers: i148.lcrc.anl.gov
 Default is to use 128 SMP processors on each worker.
 Entering Link 1 = /gpfs/fs1/soft/improv/software/custom-built/gaussian/g16/l1.exe PID=   1094210.
  
 Copyright (c) 1988-2021, Gaussian, Inc.  All Rights Reserved.
  
 This is part of the Gaussian(R) 16 program.  It is based on
 the Gaussian(R) 09 system (copyright 2009, Gaussian, Inc.),
 the Gaussian(R) 03 system (copyright 2003, Gaussian, Inc.),
 the Gaussian(R) 98 system (copyright 1998, Gaussian, Inc.),
 the Gaussian(R) 94 system (copyright 1995, Gaussian, Inc.),
 the Gaussian 92(TM) system (copyright 1992, Gaussian, Inc.),
 the Gaussian 90(TM) system (copyright 1990, Gaussian, Inc.),
 the Gaussian 88(TM) system (copyright 1988, Gaussian, Inc.),
 the Gaussian 86(TM) system (copyright 1986, Carnegie Mellon
 University), and the Gaussian 82(TM) system (copyright 1983,
 Carnegie Mellon University). Gaussian is a federally registered
 trademark of Gaussian, Inc.
  
 This software contains proprietary and confidential information,
 including trade secrets, belonging to Gaussian, Inc.
  
 This software is provided under written license and may be
 used, copied, transmitted, or stored only in accord with that
 written license.
  
 The following legend is applicable only to US Government
 contracts under FAR:
  
                    RESTRICTED RIGHTS LEGEND
  
 Use, reproduction and disclosure by the US Government is
 subject to restrictions as set forth in subparagraphs (a)
 and (c) of the Commercial Computer Software - Restricted
 Rights clause in FAR 52.227-19.
  
 Gaussian, Inc.
 340 Quinnipiac St., Bldg. 40, Wallingford CT 06492
  
  
 ---------------------------------------------------------------
 Warning -- This program may not be used in any manner that
 competes with the business of Gaussian, Inc. or will provide
 assistance to any competitor of Gaussian, Inc.  The licensee
 of this program is prohibited from giving any competitor of
 Gaussian, Inc. access to this program.  By using this program,
 the user acknowledges that Gaussian, Inc. is engaged in the
 business of creating and licensing software in the field of
 computational chemistry and represents and warrants to the
 licensee that it is not a competitor of Gaussian, Inc. and that
 it will not use this program in any manner prohibited above.
 ---------------------------------------------------------------
  

 Cite this work as:
 Gaussian 16, Revision C.02,
 M. J. Frisch, G. W. Trucks, H. B. Schlegel, G. E. Scuseria, 
 M. A. Robb, J. R. Cheeseman, G. Scalmani, V. Barone, 
 G. A. Petersson, H. Nakatsuji, X. Li, M. Caricato, A. V. Marenich, 
 J. Bloino, B. G. Janesko, R. Gomperts, B. Mennucci, H. P. Hratchian, 
 J. V. Ortiz, A. F. Izmaylov, J. L. Sonnenberg, D. Williams-Young, 
 F. Ding, F. Lipparini, F. Egidi, J. Goings, B. Peng, A. Petrone, 
 T. Henderson, D. Ranasinghe, V. G. Zakrzewski, J. Gao, N. Rega, 
 G. Zheng, W. Liang, M. Hada, M. Ehara, K. Toyota, R. Fukuda, 
 J. Hasegawa, M. Ishida, T. Nakajima, Y. Honda, O. Kitao, H. Nakai, 
 T. Vreven, K. Throssell, J. A. Montgomery, Jr., J. E. Peralta, 
 F. Ogliaro, M. J. Bearpark, J. J. Heyd, E. N. Brothers, K. N. Kudin, 
 V. N. Staroverov, T. A. Keith, R. Kobayashi, J. Normand, 
 K. Raghavachari, A. P. Rendell, J. C. Burant, S. S. Iyengar, 
 J. Tomasi, M. Cossi, J. M. Millam, M. Klene, C. Adamo, R. Cammi, 
 J. W. Ochterski, R. L. Martin, K. Morokuma, O. Farkas, 
 J. B. Foresman, and D. J. Fox, Gaussian, Inc., Wallingford CT, 2019.
 
 ******************************************
 Gaussian 16:  ES64L-G16RevC.02  7-Dec-2021
                31-Jan-2025 
 ******************************************
 %chk=phenothiazine_0_gas
 SetSPE:  set environment variable "OMP_PROC_BIND" = "true"
 SetSPE:  set environment variable "OMP_PLACES" = "{0},{1},{2},{3},{4},{5},{6},{7},{8},{9},{10},{11},{12},{13},{14},{15},{16},{17},{18},{19},{20},{21},{22},{23},{24},{25},{26},{27},{28},{29},{30},{31},{32},{33},{34},{35},{36},{37},{38},{39},{40},{41},{42},{43},{44},{45},{46},{47},{48},{49},{50},{51},{52},{53},{54},{55},{56},{57},{58},{59},{60},{61},{62},{63},{64},{65},{66},{67},{68},{69},{70},{71},{72},{73},{74},{75},{76},{77},{78},{79},{80},{81},{82},{83},{84},{85},{86},{87},{88},{89},{90},{91},{92},{93},{94},{95},{96},{97},{98},{99},{100},{101},{102},{103},{104},{105},{106},{107},{108},{109},{110},{111},{112},{113},{114},{115},{116},{117},{118},{119},{120},{121},{122},{123},{124},{125},{126},{127}"
 SetLPE:    new flags="-opt 'Tsnet.Node.lindarsharg: ssh'  -nodelist 'i148.lcrc.anl.gov' -env GAUSS_MDEF=13421772800 -env GAUSS_EXEDIR="/gpfs/fs1/soft/improv/software/custom-built/gaussian/g16/bsd:/gpfs/fs1/soft/improv/software/custom-built/gaussian/g16" -env "OMP_PROC_BIND=true" -env "OMP_PLACES={0},{1},{2},{3},{4},{5},{6},{7},{8},{9},{10},{11},{12},{13},{14},{15},{16},{17},{18},{19},{20},{21},{22},{23},{24},{25},{26},{27},{28},{29},{30},{31},{32},{33},{34},{35},{36},{37},{38},{39},{40},{41},{42},{43},{44},{45},{46},{47},{48},{49},{50},{51},{52},{53},{54},{55},{56},{57},{58},{59},{60},{61},{62},{63},{64},{65},{66},{67},{68},{69},{70},{71},{72},{73},{74},{75},{76},{77},{78},{79},{80},{81},{82},{83},{84},{85},{86},{87},{88},{89},{90},{91},{92},{93},{94},{95},{96},{97},{98},{99},{100},{101},{102},{103},{104},{105},{106},{107},{108},{109},{110},{111},{112},{113},{114},{115},{116},{117},{118},{119},{120},{121},{122},{123},{124},{125},{126},{127}" -env GAUSS_ADEF="0,1,2,3,4,5,6,7,8,9,10,11,12,13,14,15,16,17,18,19,20,21,22,23,24,25,26,27,28,29,30,31,32,33,34,35,36,37,38,39,40,41,42,43,44,45,46,47,48,49,50,51,52,53,54,55,56,57,58,59,60,61,62,63,64,65,66,67,68,69,70,71,72,73,74,75,76,77,78,79,80,81,82,83,84,85,86,87,88,89,90,91,92,93,94,95,96,97,98,99,100,101,102,103,104,105,106,107,108,109,110,111,112,113,114,115,116,117,118,119,120,121,122,123,124,125,126,127""
 Will use up to    1 processors via Linda.
 ----------------------------------------------------------------------
 #p ub3lyp 6-31G(2df,p) opt=(calcfc,cartesian) freq scf=(novaracc,maxcy
 cles=1000,fermi,xqc) empiricaldispersion=gd3
 ----------------------------------------------------------------------
 1/10=4,18=10,26=3,38=1/1,3;
 2/12=2,17=6,18=5,29=2,40=1/2;
 3/5=1,6=6,7=104,11=2,25=1,30=1,71=2,74=-5,116=2,124=31,140=1/1,2,3;
 4//1;
 5/5=2,7=1000,8=3,13=1,22=13,38=1/2,8;
 8/6=4,10=90,11=11/1;
 11/6=1,8=1,9=11,15=111,16=1/1,2,10;
 10/6=1,13=1/2;
 6/7=2,8=2,9=2,10=2,28=1/1;
 7/7=1,10=1,25=1/1,2,3,16;
 1/10=4,18=10,26=3/3(2);
 2/29=1/2;
 99/12=1/99;
 2/29=1/2;
 3/5=1,6=6,7=104,11=2,25=1,30=1,71=1,74=-5,116=2,124=31/1,2,3;
 4/5=5,16=3,69=1/1;
 5/5=2,7=1000,8=3,13=1,22=13,38=1/2,8;
 7/7=1/1,2,3,16;
 1/18=10,26=3/3(-5);
 2/29=1/2;
 6/7=2,8=2,9=2,10=2,19=2,28=1/1;
 99/9=1,12=1/99;
 Leave Link    1 at Fri Jan 31 16:29:44 2025, MaxMem=           0 cpu:               6.9 elap:               0.1
 (Enter /gpfs/fs1/soft/improv/software/custom-built/gaussian/g16/l101.exe)
 -----
 title
 -----
 Symbolic Z-matrix:
 Charge =  0 Multiplicity = 1
 C                    -3.55379  -0.08795  -0.2756 
 C                    -3.38148  -1.03305   0.71946 
 C                    -2.12617  -1.21343   1.27335 
 C                    -1.06411  -0.43101   0.85584 
 C                    -1.22348   0.53983  -0.13602 
 C                    -2.48647   0.67831  -0.71011 
 N                    -0.14337   1.32675  -0.53894 
 C                     1.11628   0.73742  -0.6635 
 C                     1.9827    1.06556  -1.70543 
 C                     3.23242   0.47962  -1.80353 
 C                     3.64132  -0.46489  -0.87935 
 C                     2.78586  -0.82235   0.1479 
 C                     1.54482  -0.22056   0.25883 
 H                    -4.52378   0.05319  -0.72815 
 H                    -4.21301  -1.62979   1.06027 
 H                    -1.96143  -1.94583   2.04861 
 H                    -2.63825   1.38854  -1.50773 
 H                     1.68077   1.78508  -2.44925 
 H                     3.88625   0.76395  -2.61434 
 H                     4.61612  -0.92091  -0.95404 
 H                     3.079    -1.55354   0.8855 
 S                     0.51281  -0.6499    1.6352 
 C                    -0.3734    2.64687  -1.07531 
 H                    -0.27762   2.69121  -2.16655 
 H                    -1.3859    2.95553  -0.81366 
 C                     0.57557   3.66825  -0.43869 
 H                     0.5183    3.58519   0.65901 
 H                     1.61833   3.48366  -0.73537 
 O                     0.16318   4.94552  -0.85835 
 C                     0.96449   5.98267  -0.34758 
 H                     0.88819   6.01028   0.75048 
 H                     2.01677   5.82773  -0.62358 
 C                     0.49032   7.30658  -0.93362 
 H                    -0.60617   7.2879   -1.00811 
 H                     0.78399   8.13461  -0.26923 
 O                     1.06746   7.4809   -2.20375 
 C                     0.60183   8.62853  -2.86321 
 H                     0.83041   9.53719  -2.29153 
 H                     1.11319   8.66563  -3.82196 
 H                    -0.48134   8.58229  -3.02786 
 
 ITRead=  0  0  0  0  0  0  0  0  0  0  0  0  0  0  0  0  0  0  0  0
 ITRead=  0  0  0  0  0  0  0  0  0  0  0  0  0  0  0  0  0  0  0  0
 MicOpt= -1 -1 -1 -1 -1 -1 -1 -1 -1 -1 -1 -1 -1 -1 -1 -1 -1 -1 -1 -1
 MicOpt= -1 -1 -1 -1 -1 -1 -1 -1 -1 -1 -1 -1 -1 -1 -1 -1 -1 -1 -1 -1
 NAtoms=     40 NQM=       40 NQMF=       0 NMMI=      0 NMMIF=      0
                NMic=       0 NMicF=      0.
                    Isotopes and Nuclear Properties:
 (Nuclear quadrupole moments (NQMom) in fm**2, nuclear magnetic moments (NMagM)
  in nuclear magnetons)

  Atom         1           2           3           4           5           6           7           8           9          10
 IAtWgt=          12          12          12          12          12          12          14          12          12          12
 AtmWgt=  12.0000000  12.0000000  12.0000000  12.0000000  12.0000000  12.0000000  14.0030740  12.0000000  12.0000000  12.0000000
 NucSpn=           0           0           0           0           0           0           2           0           0           0
 AtZEff=  -0.0000000  -0.0000000  -0.0000000  -0.0000000  -0.0000000  -0.0000000  -0.0000000  -0.0000000  -0.0000000  -0.0000000
 NQMom=    0.0000000   0.0000000   0.0000000   0.0000000   0.0000000   0.0000000   2.0440000   0.0000000   0.0000000   0.0000000
 NMagM=    0.0000000   0.0000000   0.0000000   0.0000000   0.0000000   0.0000000   0.4037610   0.0000000   0.0000000   0.0000000
 AtZNuc=   6.0000000   6.0000000   6.0000000   6.0000000   6.0000000   6.0000000   7.0000000   6.0000000   6.0000000   6.0000000

  Atom        11          12          13          14          15          16          17          18          19          20
 IAtWgt=          12          12          12           1           1           1           1           1           1           1
 AtmWgt=  12.0000000  12.0000000  12.0000000   1.0078250   1.0078250   1.0078250   1.0078250   1.0078250   1.0078250   1.0078250
 NucSpn=           0           0           0           1           1           1           1           1           1           1
 AtZEff=  -0.0000000  -0.0000000  -0.0000000  -0.0000000  -0.0000000  -0.0000000  -0.0000000  -0.0000000  -0.0000000  -0.0000000
 NQMom=    0.0000000   0.0000000   0.0000000   0.0000000   0.0000000   0.0000000   0.0000000   0.0000000   0.0000000   0.0000000
 NMagM=    0.0000000   0.0000000   0.0000000   2.7928460   2.7928460   2.7928460   2.7928460   2.7928460   2.7928460   2.7928460
 AtZNuc=   6.0000000   6.0000000   6.0000000   1.0000000   1.0000000   1.0000000   1.0000000   1.0000000   1.0000000   1.0000000

  Atom        21          22          23          24          25          26          27          28          29          30
 IAtWgt=           1          32          12           1           1          12           1           1          16          12
 AtmWgt=   1.0078250  31.9720718  12.0000000   1.0078250   1.0078250  12.0000000   1.0078250   1.0078250  15.9949146  12.0000000
 NucSpn=           1           0           0           1           1           0           1           1           0           0
 AtZEff=  -0.0000000  -0.0000000  -0.0000000  -0.0000000  -0.0000000  -0.0000000  -0.0000000  -0.0000000  -0.0000000  -0.0000000
 NQMom=    0.0000000   0.0000000   0.0000000   0.0000000   0.0000000   0.0000000   0.0000000   0.0000000   0.0000000   0.0000000
 NMagM=    2.7928460   0.0000000   0.0000000   2.7928460   2.7928460   0.0000000   2.7928460   2.7928460   0.0000000   0.0000000
 AtZNuc=   1.0000000  16.0000000   6.0000000   1.0000000   1.0000000   6.0000000   1.0000000   1.0000000   8.0000000   6.0000000

  Atom        31          32          33          34          35          36          37          38          39          40
 IAtWgt=           1           1          12           1           1          16          12           1           1           1
 AtmWgt=   1.0078250   1.0078250  12.0000000   1.0078250   1.0078250  15.9949146  12.0000000   1.0078250   1.0078250   1.0078250
 NucSpn=           1           1           0           1           1           0           0           1           1           1
 AtZEff=  -0.0000000  -0.0000000  -0.0000000  -0.0000000  -0.0000000  -0.0000000  -0.0000000  -0.0000000  -0.0000000  -0.0000000
 NQMom=    0.0000000   0.0000000   0.0000000   0.0000000   0.0000000   0.0000000   0.0000000   0.0000000   0.0000000   0.0000000
 NMagM=    2.7928460   2.7928460   0.0000000   2.7928460   2.7928460   0.0000000   0.0000000   2.7928460   2.7928460   2.7928460
 AtZNuc=   1.0000000   1.0000000   6.0000000   1.0000000   1.0000000   8.0000000   6.0000000   1.0000000   1.0000000   1.0000000
 Leave Link  101 at Fri Jan 31 16:29:45 2025, MaxMem= 13421772800 cpu:               0.4 elap:               0.1
 (Enter /gpfs/fs1/soft/improv/software/custom-built/gaussian/g16/l103.exe)

 GradGradGradGradGradGradGradGradGradGradGradGradGradGradGradGradGradGrad
 Berny optimization.
 Initialization pass.
 No Z-matrix variables, so optimization will use Cartesian coordinates.
 Trust Radius=3.00D-01 FncErr=1.00D-07 GrdErr=1.00D-06 EigMax=2.50D+02 EigMin=1.00D-04
 Number of steps in this run=    130 maximum allowed number of steps=    240.
 GradGradGradGradGradGradGradGradGradGradGradGradGradGradGradGradGradGrad

 Leave Link  103 at Fri Jan 31 16:29:45 2025, MaxMem= 13421772800 cpu:               0.4 elap:               0.1
 (Enter /gpfs/fs1/soft/improv/software/custom-built/gaussian/g16/l202.exe)
 ---------------------------------------------------------------------------------------------------
                            Z-MATRIX (ANGSTROMS AND DEGREES)
   CD    Cent   Atom    N1       Length/X        N2       Alpha/Y        N3        Beta/Z          J
 ---------------------------------------------------------------------------------------------------
      1      1  C        0  -3.553791         -0.087948         -0.275597
      2      2  C        0  -3.381480         -1.033050          0.719456
      3      3  C        0  -2.126166         -1.213428          1.273346
      4      4  C        0  -1.064110         -0.431009          0.855837
      5      5  C        0  -1.223477          0.539826         -0.136023
      6      6  C        0  -2.486474          0.678312         -0.710114
      7      7  N        0  -0.143370          1.326753         -0.538945
      8      8  C        0   1.116276          0.737422         -0.663498
      9      9  C        0   1.982699          1.065562         -1.705428
     10     10  C        0   3.232417          0.479625         -1.803526
     11     11  C        0   3.641317         -0.464894         -0.879355
     12     12  C        0   2.785860         -0.822345          0.147904
     13     13  C        0   1.544821         -0.220560          0.258828
     14     14  H        0  -4.523784          0.053193         -0.728151
     15     15  H        0  -4.213012         -1.629791          1.060268
     16     16  H        0  -1.961435         -1.945825          2.048605
     17     17  H        0  -2.638255          1.388542         -1.507733
     18     18  H        0   1.680767          1.785082         -2.449252
     19     19  H        0   3.886254          0.763954         -2.614341
     20     20  H        0   4.616120         -0.920910         -0.954041
     21     21  H        0   3.078999         -1.553542          0.885496
     22     22  S        0   0.512815         -0.649901          1.635201
     23     23  C        0  -0.373403          2.646869         -1.075305
     24     24  H        0  -0.277616          2.691205         -2.166546
     25     25  H        0  -1.385902          2.955528         -0.813658
     26     26  C        0   0.575567          3.668250         -0.438692
     27     27  H        0   0.518302          3.585188          0.659008
     28     28  H        0   1.618329          3.483664         -0.735369
     29     29  O        0   0.163176          4.945520         -0.858353
     30     30  C        0   0.964492          5.982671         -0.347575
     31     31  H        0   0.888190          6.010280          0.750483
     32     32  H        0   2.016770          5.827732         -0.623585
     33     33  C        0   0.490316          7.306577         -0.933619
     34     34  H        0  -0.606170          7.287896         -1.008107
     35     35  H        0   0.783990          8.134612         -0.269228
     36     36  O        0   1.067460          7.480903         -2.203752
     37     37  C        0   0.601833          8.628530         -2.863213
     38     38  H        0   0.830405          9.537189         -2.291532
     39     39  H        0   1.113187          8.665625         -3.821956
     40     40  H        0  -0.481336          8.582288         -3.027865
 ---------------------------------------------------------------------------------------------------
                         Z-Matrix orientation:                         
 ---------------------------------------------------------------------
 Center     Atomic      Atomic             Coordinates (Angstroms)
 Number     Number       Type             X           Y           Z
 ---------------------------------------------------------------------
      1          6           0       -3.553791   -0.087948   -0.275597
      2          6           0       -3.381480   -1.033050    0.719456
      3          6           0       -2.126166   -1.213428    1.273346
      4          6           0       -1.064110   -0.431009    0.855837
      5          6           0       -1.223477    0.539826   -0.136023
      6          6           0       -2.486474    0.678312   -0.710114
      7          7           0       -0.143370    1.326753   -0.538945
      8          6           0        1.116276    0.737422   -0.663498
      9          6           0        1.982699    1.065562   -1.705428
     10          6           0        3.232417    0.479625   -1.803526
     11          6           0        3.641317   -0.464894   -0.879355
     12          6           0        2.785860   -0.822345    0.147904
     13          6           0        1.544821   -0.220560    0.258828
     14          1           0       -4.523784    0.053193   -0.728151
     15          1           0       -4.213012   -1.629791    1.060268
     16          1           0       -1.961435   -1.945825    2.048605
     17          1           0       -2.638255    1.388542   -1.507733
     18          1           0        1.680767    1.785082   -2.449252
     19          1           0        3.886254    0.763954   -2.614341
     20          1           0        4.616120   -0.920910   -0.954041
     21          1           0        3.078999   -1.553542    0.885496
     22         16           0        0.512815   -0.649901    1.635201
     23          6           0       -0.373403    2.646869   -1.075305
     24          1           0       -0.277616    2.691205   -2.166546
     25          1           0       -1.385902    2.955528   -0.813658
     26          6           0        0.575567    3.668250   -0.438692
     27          1           0        0.518302    3.585188    0.659008
     28          1           0        1.618329    3.483664   -0.735369
     29          8           0        0.163176    4.945520   -0.858353
     30          6           0        0.964492    5.982671   -0.347575
     31          1           0        0.888190    6.010280    0.750483
     32          1           0        2.016770    5.827732   -0.623585
     33          6           0        0.490316    7.306577   -0.933619
     34          1           0       -0.606170    7.287896   -1.008107
     35          1           0        0.783990    8.134612   -0.269228
     36          8           0        1.067460    7.480903   -2.203752
     37          6           0        0.601833    8.628530   -2.863213
     38          1           0        0.830405    9.537189   -2.291532
     39          1           0        1.113187    8.665625   -3.821956
     40          1           0       -0.481336    8.582288   -3.027865
 ---------------------------------------------------------------------
                    Distance matrix (angstroms):
                    1          2          3          4          5
     1  C    0.000000
     2  C    1.383126   0.000000
     3  C    2.388314   1.383887   0.000000
     4  C    2.756147   2.398178   1.383639   0.000000
     5  C    2.417425   2.804061   2.423854   1.397034   0.000000
     6  C    1.383880   2.402804   2.764529   2.388706   1.394246
     7  N    3.701581   4.199714   3.697080   2.425470   1.395791
     8  C    4.758280   5.027618   4.250955   2.903049   2.406600
     9  C    5.833328   6.249692   5.563242   4.252393   3.608184
    10  C    6.979206   7.238595   6.406870   5.134355   4.758065
    11  C    7.230227   7.224865   6.201474   5.015285   5.022771
    12  C    6.396081   6.197350   5.054459   3.934028   4.243926
    13  C    5.128258   5.014056   3.935883   2.684628   2.897856
    14  H    1.079635   2.140174   3.370295   3.835728   3.388134
    15  H    2.143919   1.078749   2.138618   3.375568   3.882740
    16  H    3.374792   2.148564   1.079152   2.126630   3.390523
    17  H    2.129880   3.372961   3.842771   3.372708   2.145578
    18  H    5.969389   6.603705   6.110772   4.834151   3.916162
    19  H    7.845364   8.195327   7.427876   6.162481   5.683454
    20  H    8.240240   8.171583   7.106704   5.981695   6.074850
    21  H    6.891299   6.483538   5.230664   4.292588   4.892544
    22  S    4.528158   4.018821   2.722631   1.772572   2.750889
    23  C    4.270085   5.080502   4.846673   3.698610   2.458558
    24  H    4.693900   5.642078   5.522332   4.416060   3.105818
    25  H    3.775181   4.716091   4.720569   3.789379   2.514197
    26  C    5.584552   6.253139   5.836199   4.600899   3.621492
    27  H    5.563035   6.044839   5.513378   4.321181   3.597235
    28  H    6.302271   6.893135   6.333944   5.005205   4.135367
    29  O    6.284206   7.127227   6.907812   5.775096   4.674901
    30  C    7.567858   8.321440   7.997712   6.833646   5.869968
    31  H    7.613962   8.236476   7.844851   6.731477   5.930506
    32  H    8.133112   8.832621   8.386907   7.131083   6.220842
    33  C    8.453803   9.341993   9.181893   8.092504   7.025821
    34  H    7.976723   8.940076   8.932409   7.953960   6.832133
    35  H    9.296606  10.118037   9.911327   8.834654   7.856745
    36  O    9.075310  10.041196   9.893476   8.746601   7.596213
    37  C    9.997097  11.047553  11.018949   9.933879   8.729058
    38  H   10.767007  11.770131  11.705787  10.623563   9.477194
    39  H   10.534818  11.614248  11.578049  10.458065   9.223596
    40  H    9.601456  10.719514  10.824137   9.831699   8.578737
                    6          7          8          9         10
     6  C    0.000000
     7  N    2.437194   0.000000
     8  C    3.603537   1.396257   0.000000
     9  C    4.595010   2.439071   1.394267   0.000000
    10  C    5.825868   3.703070   2.417472   1.383742   0.000000
    11  C    6.235815   4.201158   2.804993   2.403270   1.383260
    12  C    5.548484   3.697400   2.424615   2.764797   2.388016
    13  C    4.242424   2.424996   1.397164   2.388336   2.755275
    14  H    2.131133   4.565718   5.681780   6.656897   7.841997
    15  H    3.382681   5.278316   6.080821   7.300742   8.251386
    16  H    3.843475   4.550884   4.901799   6.222331   6.906361
    17  H    1.078731   2.677092   3.902972   4.636443   5.947975
    18  H    4.649241   2.680823   2.145963   1.078029   2.128097
    19  H    6.651698   4.567481   3.388107   2.130872   1.079707
    20  H    7.284494   5.279871   3.883733   3.383129   2.144238
    21  H    6.204969   4.550691   3.391191   3.843757   3.374632
    22  S    4.032417   3.010755   2.751881   4.032762   4.527351
    23  C    2.910953   1.443366   2.456566   2.906682   4.269565
    24  H    3.324452   2.128106   2.831847   2.822121   4.164517
    25  H    2.531341   2.066945   3.347153   3.964176   5.332804
    26  C    4.288298   2.451435   2.988755   3.218482   4.369091
    27  H    4.399216   2.640725   3.196305   3.752803   4.803646
    28  H    4.971926   2.791850   2.792680   2.630778   3.573582
    29  O    5.025105   3.645746   4.319080   4.368325   5.500709
    30  C    6.338519   4.789734   5.256946   5.201775   6.127544
    31  H    6.477004   4.966102   5.463918   5.628471   6.527366
    32  H    6.841288   4.993214   5.169501   4.883627   5.610019
    33  C    7.269465   6.026244   6.604436   6.463216   7.408314
    34  H    6.878294   5.997459   6.781908   6.775392   7.856207
    35  H    8.153939   6.876023   7.415139   7.312390   8.182157
    36  O    7.818993   6.489319   6.917319   6.499430   7.339286
    37  C    8.796558   7.698929   8.208105   7.774686   8.628300
    38  H    9.590739   8.451690   8.953665   8.569700   9.383351
    39  H    9.297220   8.137330   8.534182   7.937046   8.693434
    40  H    8.477346   7.678004   8.347726   8.020067   8.996895
                   11         12         13         14         15
    11  C    0.000000
    12  C    1.383778   0.000000
    13  C    2.398011   1.383700   0.000000
    14  H    8.182918   7.413833   6.154432   0.000000
    15  H    8.173715   7.104124   5.981712   2.475370   0.000000
    16  H    6.492837   5.235616   4.298101   4.274586   2.479171
    17  H    6.577469   6.086885   4.817475   2.438468   4.264367
    18  H    3.372051   3.842542   3.372651   6.667689   7.662553
    19  H    2.140149   3.370047   3.834929   8.648215   9.210368
    20  H    1.078781   2.138656   3.375562   9.194441   9.083696
    21  H    2.148500   1.079176   2.126795   7.936483   7.294504
    22  S    4.018052   2.721860   1.773068   5.607771   4.860470
    23  C    5.083251   4.848982   3.698871   4.906458   6.131321
    24  H    5.193829   5.204479   4.205008   5.201733   6.676127
    25  H    6.080833   5.709686   4.452740   4.275180   5.703446
    26  C    5.164871   5.039339   4.068026   6.257460   7.297028
    27  H    5.340688   4.982910   3.962020   6.310454   7.052826
    28  H    4.438955   4.548078   3.836027   7.035178   7.960922
    29  O    6.431989   6.415550   5.463096   6.776386   8.128151
    30  C    7.001377   7.061949   6.259759   8.088555   9.313332
    31  H    7.222462   7.116813   6.284605   8.183075   9.191786
    32  H    6.503977   6.738711   6.130517   8.725542   9.862059
    33  C    8.386150   8.515784   7.693614   8.820147  10.293471
    34  H    8.841011   8.866692   7.912572   8.232071   9.839341
    35  H    9.082295   9.187414   8.406344   9.679484  11.049035
    36  O    8.456622   8.799268   8.099674   9.413304  11.024608
    37  C    9.791043  10.156567   9.430947  10.216009  11.992064
    38  H   10.485091  10.821026  10.110806  11.002622  12.703231
    39  H    9.920520  10.420135   9.787921  10.748073  12.577763
    40  H   10.171719  10.450225   9.612378   9.714708  11.615714
                   16         17         18         19         20
    16  H    0.000000
    17  H    4.921751   0.000000
    18  H    6.885929   4.438203   0.000000
    19  H    7.954963   6.647098   2.436008   0.000000
    20  H    7.302778   7.633223   4.263138   2.475493   0.000000
    21  H    5.187743   6.860787   4.921586   4.274495   2.479286
    22  S    2.823515   4.895153   4.896530   5.606932   4.859499
    23  C    5.776980   2.626772   2.617254   4.904965   6.135070
    24  H    6.488821   2.775532   2.176292   4.610058   6.202112
    25  H    5.705002   2.122633   3.667365   5.986743   7.146379
    26  C    6.643860   4.082716   2.968188   4.912132   6.136126
    27  H    6.218696   4.414054   3.775312   5.478803   6.300710
    28  H    7.074219   4.806723   2.413808   4.008845   5.332432
    29  O    7.775282   4.574035   3.849987   5.867733   7.365654
    30  C    8.784292   5.952459   4.748668   6.396087   7.833365
    31  H    8.550152   6.236651   5.358991   6.916240   8.052593
    32  H    9.132081   6.492872   4.448480   5.753254   7.239474
    33  C   10.025552   6.718682   5.848180   7.560631   9.204032
    34  H    9.820480   6.259502   6.130900   8.082307   9.729323
    35  H   10.701632   7.665189   6.772979   8.333679   9.856808
    36  O   10.775897   7.164749   5.734003   7.295998   9.205717
    37  C   11.937893   8.046920   6.940334   8.526484  10.533340
    38  H   12.589313   8.890804   7.800202   9.295810  11.202337
    39  H   12.510782   8.507931   7.039058   8.460771  10.601751
    40  H   11.781444   7.662447   7.156221   8.965110  10.981602
                   21         22         23         24         25
    21  H    0.000000
    22  S    2.822043   0.000000
    23  C    5.779902   4.359004   0.000000
    24  H    6.212866   5.122601   1.096333   0.000000
    25  H    6.569183   4.754066   1.090359   1.768748   0.000000
    26  C    5.940350   4.790762   1.532658   2.160560   2.120362
    27  H    5.745869   4.346143   2.164122   3.068623   2.488214
    28  H    5.489463   4.891637   2.186957   2.504170   3.051305
    29  O    7.333541   6.135860   2.370397   2.643407   2.522243
    30  C    7.923769   6.937321   3.667033   3.960459   3.860723
    31  H    7.875867   6.729164   4.029598   4.569948   4.116982
    32  H    7.608473   7.023085   4.004357   4.181237   4.456889
    33  C    9.408090   8.360913   4.741198   4.838541   4.739854
    34  H    9.764078   8.440842   4.647346   4.751788   4.406269
    35  H   10.023013   8.992667   5.666096   5.861527   5.641609
    36  O    9.757609   9.008616   5.168885   4.975121   5.332014
    37  C   11.129410  10.311786   6.318858   6.042401   6.350963
    38  H   11.753893  10.922312   7.099639   6.936197   7.100310
    39  H   11.421729  10.812957   6.780816   6.353614   6.921020
    40  H   11.433522  10.390661   6.249267   5.957200   6.114032
                   26         27         28         29         30
    26  C    0.000000
    27  H    1.102327   0.000000
    28  H    1.099747   1.778948   0.000000
    29  O    1.406271   2.068575   2.066305   0.000000
    30  C    2.348639   2.638223   2.612073   1.406657   0.000000
    31  H    2.645179   2.454844   3.020704   2.060998   1.101052
    32  H    2.602809   2.986546   2.380317   2.066210   1.098853
    33  C    3.672824   4.047960   3.990787   2.384801   1.523488
    34  H    3.850009   4.213521   4.415310   2.470030   2.146367
    35  H    4.474432   4.650750   4.748130   3.301937   2.160919
    36  O    4.230097   4.865549   4.293894   3.009319   2.387613
    37  C    5.521174   6.152099   5.659561   4.216213   3.668859
    38  H    6.159740   6.650520   6.299813   4.856195   4.053585
    39  H    6.058817   6.800278   6.052678   4.850222   4.392229
    40  H    5.654081   6.289938   5.971608   4.283488   4.004045
                   31         32         33         34         35
    31  H    0.000000
    32  H    1.787478   0.000000
    33  C    2.162149   2.147828   0.000000
    34  H    2.637812   3.026508   1.099172   0.000000
    35  H    2.358698   2.639510   1.101500   1.787572   0.000000
    36  O    3.304902   2.476104   1.405960   2.065880   2.061571
    37  C    4.471692   3.855185   2.341651   2.588048   2.646864
    38  H    4.657927   4.236695   2.633481   2.961461   2.461522
    39  H    5.292323   4.370318   3.252303   3.573805   3.607246
    40  H    4.771450   4.428168   2.637691   2.402178   3.067823
                   36         37         38         39         40
    36  O    0.000000
    37  C    1.403120   0.000000
    38  H    2.071766   1.097600   0.000000
    39  H    2.006051   1.087221   1.783757   0.000000
    40  H    2.071468   1.096587   1.781764   1.783264   0.000000
 Stoichiometry    C17H19NO2S
 Framework group  C1[X(C17H19NO2S)]
 Deg. of freedom   114
 Full point group                 C1      NOp   1
 Largest Abelian subgroup         C1      NOp   1
 Largest concise Abelian subgroup C1      NOp   1
                         Standard orientation:                         
 ---------------------------------------------------------------------
 Center     Atomic      Atomic             Coordinates (Angstroms)
 Number     Number       Type             X           Y           Z
 ---------------------------------------------------------------------
      1          6           0        2.628093   -3.333150   -0.983318
      2          6           0        3.774647   -3.107637   -0.243321
      3          6           0        3.915915   -1.913281    0.441297
      4          6           0        2.903345   -0.970863    0.409585
      5          6           0        1.731327   -1.188809   -0.318823
      6          6           0        1.625448   -2.380674   -1.034481
      7          7           0        0.715856   -0.231280   -0.332585
      8          6           0        1.058936    1.120607   -0.397635
      9          6           0        0.335130    2.027340   -1.170889
     10          6           0        0.683689    3.365848   -1.211425
     11          6           0        1.775874    3.830459   -0.501018
     12          6           0        2.521921    2.941484    0.252625
     13          6           0        2.160559    1.607069    0.310776
     14          1           0        2.510517   -4.253515   -1.535329
     15          1           0        4.556192   -3.850007   -0.201218
     16          1           0        4.801036   -1.708541    1.023716
     17          1           0        0.753378   -2.566131   -1.641738
     18          1           0       -0.509197    1.687355   -1.748528
     19          1           0        0.095855    4.046247   -1.809150
     20          1           0        2.047285    4.874120   -0.530630
     21          1           0        3.376913    3.275739    0.819972
     22         16           0        3.096432    0.518396    1.351306
     23          6           0       -0.652836   -0.634788   -0.549764
     24          1           0       -1.008517   -0.422909   -1.564921
     25          1           0       -0.727369   -1.710009   -0.384752
     26          6           0       -1.586692    0.031427    0.466657
     27          1           0       -1.198020   -0.136518    1.484426
     28          1           0       -1.644107    1.117597    0.304232
     29          8           0       -2.856135   -0.555821    0.320879
     30          6           0       -3.818093   -0.022063    1.197476
     31          1           0       -3.531756   -0.228847    2.240342
     32          1           0       -3.899396    1.065588    1.063754
     33          6           0       -5.168579   -0.658870    0.894689
     34          1           0       -5.012063   -1.717360    0.643134
     35          1           0       -5.815875   -0.600351    1.784007
     36          8           0       -5.766835    0.019967   -0.181412
     37          6           0       -6.971161   -0.567795   -0.597199
     38          1           0       -7.711096   -0.576817    0.213442
     39          1           0       -7.343920    0.035784   -1.421088
     40          1           0       -6.815138   -1.597801   -0.939612
 ---------------------------------------------------------------------
 Rotational constants (GHZ):           0.4076272           0.1482687           0.1190865
 Leave Link  202 at Fri Jan 31 16:29:45 2025, MaxMem= 13421772800 cpu:               0.5 elap:               0.1
 (Enter /gpfs/fs1/soft/improv/software/custom-built/gaussian/g16/l301.exe)
 Standard basis: 6-31G(2df,p) (6D, 7F)
 Ernie: Thresh=  0.10000D-02 Tol=  0.10000D-05 Strict=F.
 There are   750 symmetry adapted cartesian basis functions of A   symmetry.
 There are   687 symmetry adapted basis functions of A   symmetry.
   687 basis functions,  1081 primitive gaussians,   750 cartesian basis functions
    80 alpha electrons       80 beta electrons
       nuclear repulsion energy      1745.4220010159 Hartrees.
 IExCor=  402 DFT=T Ex+Corr=B3LYP ExCW=0 ScaHFX=  0.200000
 ScaDFX=  0.800000  0.720000  1.000000  0.810000 ScalE2=  1.000000  1.000000
 IRadAn=      5 IRanWt=     -1 IRanGd=            0 ICorTp=0 IEmpDi=131
 NAtoms=   40 NActive=   40 NUniq=   40 SFac= 1.00D+00 NAtFMM=   60 NAOKFM=F Big=F
 Integral buffers will be    131072 words long.
 Raffenetti 2 integral format.
 Two-electron integral symmetry is turned on.
 R6Disp:  Grimme-D3 Dispersion energy=       -0.0377509689 Hartrees.
 Nuclear repulsion after empirical dispersion term =     1745.3842500471 Hartrees.
 Leave Link  301 at Fri Jan 31 16:29:45 2025, MaxMem= 13421772800 cpu:               0.4 elap:               0.1
 (Enter /gpfs/fs1/soft/improv/software/custom-built/gaussian/g16/l302.exe)
 NPDir=0 NMtPBC=     1 NCelOv=     1 NCel=       1 NClECP=     1 NCelD=      1
         NCelK=      1 NCelE2=     1 NClLst=     1 CellRange=     0.0.
 One-electron integrals computed using PRISM.
 One-electron integral symmetry used in STVInt
 NBasis=   687 RedAO= T EigKep=  1.06D-04  NBF=   687
 NBsUse=   687 1.00D-06 EigRej= -1.00D+00 NBFU=   687
 Precomputing XC quadrature grid using
 IXCGrd= 4 IRadAn=           5 IRanWt=          -1 IRanGd=           0 AccXCQ= 0.00D+00.
 Generated NRdTot=       0 NPtTot=           0 NUsed=           0 NTot=          32
 NSgBfM=   743   743   743   743   743 MxSgAt=    40 MxSgA2=    40.
 Leave Link  302 at Fri Jan 31 16:29:46 2025, MaxMem= 13421772800 cpu:              35.3 elap:               0.6
 (Enter /gpfs/fs1/soft/improv/software/custom-built/gaussian/g16/l303.exe)
 DipDrv:  MaxL=1.
 Leave Link  303 at Fri Jan 31 16:29:47 2025, MaxMem= 13421772800 cpu:               1.4 elap:               0.1
 (Enter /gpfs/fs1/soft/improv/software/custom-built/gaussian/g16/l401.exe)
 ExpMin= 1.17D-01 ExpMax= 2.19D+04 ExpMxC= 3.30D+03 IAcc=3 IRadAn=         5 AccDes= 0.00D+00
 Harris functional with IExCor=  402 and IRadAn=       5 diagonalized for initial guess.
 HarFok:  IExCor=  402 AccDes= 0.00D+00 IRadAn=         5 IDoV= 1 UseB2=F ITyADJ=14
 ICtDFT=  3500011 ScaDFX=  1.000000  1.000000  1.000000  1.000000
 FoFCou: FMM=F IPFlag=           0 FMFlag=      100000 FMFlg1=           0
         NFxFlg=           0 DoJE=T BraDBF=F KetDBF=T FulRan=T
         wScrn=  0.000000 ICntrl=       500 IOpCl=  0 I1Cent=   200000004 NGrid=           0
         NMat0=    1 NMatS0=      1 NMatT0=    0 NMatD0=    1 NMtDS0=    0 NMtDT0=    0
 Petite list used in FoFCou.
 Harris En= -1262.67582018798    
 JPrj=0 DoOrth=F DoCkMO=F.
 Initial guess <Sx>= 0.0000 <Sy>= 0.0000 <Sz>= 0.0000 <S**2>=-0.0000 S=-0.0000
 Leave Link  401 at Fri Jan 31 16:29:48 2025, MaxMem= 13421772800 cpu:              73.8 elap:               0.9
 (Enter /gpfs/fs1/soft/improv/software/custom-built/gaussian/g16/l502.exe)
 Integral symmetry usage will be decided dynamically.
 UHF open shell SCF:
 Using DIIS extrapolation, IDIIS=    10.
 NGot= 13421772800 LenX= 13420544103 LenY= 13419980853
 Requested convergence on RMS density matrix=1.00D-08 within 128 cycles.
 Requested convergence on MAX density matrix=1.00D-06.
 Requested convergence on             energy=1.00D-06.
 Level shift goal  0.100 maximum shift  0.100.
 No special actions if energy rises.
 Dynamic level shift is on during FON iterations.
 Fock matrices will be formed incrementally for  20 cycles.

 Cycle   1  Pass 1  IDiag  1:
 FoFJK:  IHMeth= 1 ICntrl=       0 DoSepK=F KAlg= 0 I1Cent=           0 FoldK=F
 IRaf= 680000000 NMat=       1 IRICut=       1 DoRegI=T DoRafI=F ISym2E= 0 IDoP0=0 IntGTp=1.
 FoFCou: FMM=F IPFlag=           0 FMFlag=      100000 FMFlg1=           0
         NFxFlg=           0 DoJE=F BraDBF=F KetDBF=F FulRan=T
         wScrn=  0.000000 ICntrl=         0 IOpCl=  1 I1Cent=           0 NGrid=           0
         NMat0=    1 NMatS0=      1 NMatT0=    0 NMatD0=    1 NMtDS0=    0 NMtDT0=    0
 Symmetry not used in FoFCou.
 E= -1262.17959511924    
 DIIS: error= 1.57D-02 at cycle   1 NSaved=   1.
 NSaved= 1 IEnMin= 1 EnMin= -1262.17959511924     IErMin= 1 ErrMin= 1.57D-02
 ErrMax= 1.57D-02  0.00D+00 EMaxC= 1.00D+00 BMatC= 2.01D+00 BMatP= 2.01D+00
 IDIUse=1 WtCom= 1.00D+00 WtEn= 0.00D+00
 Coeff-Com:  0.100D+01
 Coeff:      0.100D+01
 Gap=     0.297 Goal=     0.100 Shift=    0.000
 T= 1109. Gap= 0.105 NK=0 IS=   81 IE=  687 IFin=   80
          NO(<0.9)=   0  NV(>0.1)=   0     80.00e < EF      0.00e >EF  Err=0.0D+00
 Gap=     0.297 Goal=     0.100 Shift=    0.000
 T= 1109. Gap= 0.105 NK=0 IS=   81 IE=  687 IFin=   80
          NO(<0.9)=   0  NV(>0.1)=   0     80.00e < EF      0.00e >EF  Err=0.0D+00
 GapD=    0.297 DampG=1.000 DampE=0.500 DampFc=0.5000 IDamp=-1.
 Damping current iteration by 5.00D-01
 RMSDP=2.66D-03 MaxDP=1.71D-01              OVMax= 2.85D-01

 Cycle   2  Pass 1  IDiag  1:
 RMSU=  1.31D-03    CP:  9.81D-01
 E= -1262.37502118949     Delta-E=       -0.195426070251 Rises=F Damp=T
 DIIS: error= 5.98D-03 at cycle   2 NSaved=   2.
 NSaved= 2 IEnMin= 2 EnMin= -1262.37502118949     IErMin= 2 ErrMin= 5.98D-03
 ErrMax= 5.98D-03  0.00D+00 EMaxC= 1.00D+00 BMatC= 2.08D-01 BMatP= 2.01D+00
 IDIUse=1 WtCom= 1.00D+00 WtEn= 0.00D+00
 Coeff-Com:  0.123D+00 0.877D+00
 Coeff:      0.123D+00 0.877D+00
 Gap=     0.257 Goal=     0.100 Shift=    0.000
 T=  970. Gap= 0.152 NK=4 IS=   81 IE=   90 IFin=   80
          NO(<0.9)=   0  NV(>0.1)=   0     80.00e < EF      0.00e >EF  Err=0.0D+00
 Gap=     0.257 Goal=     0.100 Shift=    0.000
 T=  970. Gap= 0.152 NK=4 IS=   81 IE=   90 IFin=   80
          NO(<0.9)=   0  NV(>0.1)=   0     80.00e < EF      0.00e >EF  Err=0.0D+00
 GapD=    0.257 DampG=1.000 DampE=1.000 DampFc=1.0000 IDamp=-1.
 RMSDP=8.28D-04 MaxDP=7.58D-02 DE=-1.95D-01 OVMax= 2.55D-01

 Cycle   3  Pass 1  IDiag  1:
 RMSU=  7.50D-04    CP:  9.71D-01  7.44D-01
 E= -1262.64773913923     Delta-E=       -0.272717949734 Rises=F Damp=F
 DIIS: error= 6.96D-03 at cycle   3 NSaved=   3.
 NSaved= 3 IEnMin= 3 EnMin= -1262.64773913923     IErMin= 2 ErrMin= 5.98D-03
 ErrMax= 6.96D-03  0.00D+00 EMaxC= 1.00D+00 BMatC= 2.14D-01 BMatP= 2.08D-01
 IDIUse=1 WtCom= 1.00D+00 WtEn= 0.00D+00
 Coeff-Com: -0.266D-02 0.504D+00 0.498D+00
 Coeff:     -0.266D-02 0.504D+00 0.498D+00
 Gap=     0.178 Goal=     0.100 Shift=    0.000
 T=  810. Gap= 0.173 NK=0 IS=   81 IE=  687 IFin=   80
          NO(<0.9)=   0  NV(>0.1)=   0     80.00e < EF      0.00e >EF  Err=0.0D+00
 Gap=     0.178 Goal=     0.100 Shift=    0.000
 T=  810. Gap= 0.173 NK=0 IS=   81 IE=  687 IFin=   80
          NO(<0.9)=   0  NV(>0.1)=   0     80.00e < EF      0.00e >EF  Err=0.0D+00
 GapD=    0.178 DampG=1.000 DampE=1.000 DampFc=1.0000 IDamp=-1.
 RMSDP=5.06D-04 MaxDP=4.43D-02 DE=-2.73D-01 OVMax= 1.22D-01

 Cycle   4  Pass 1  IDiag  1:
 RMSU=  3.80D-04    CP:  9.72D-01  8.19D-01  5.75D-01
 E= -1262.69269308773     Delta-E=       -0.044953948506 Rises=F Damp=F
 DIIS: error= 3.13D-03 at cycle   4 NSaved=   4.
 NSaved= 4 IEnMin= 4 EnMin= -1262.69269308773     IErMin= 4 ErrMin= 3.13D-03
 ErrMax= 3.13D-03  0.00D+00 EMaxC= 1.00D+00 BMatC= 4.92D-02 BMatP= 2.08D-01
 IDIUse=1 WtCom= 1.00D+00 WtEn= 0.00D+00
 Coeff-Com: -0.237D-01 0.163D+00 0.341D+00 0.521D+00
 Coeff:     -0.237D-01 0.163D+00 0.341D+00 0.521D+00
 Gap=     0.173 Goal=     0.100 Shift=    0.000
 T=  462. Gap= 0.171 NK=0 IS=   81 IE=  687 IFin=   80
          NO(<0.9)=   0  NV(>0.1)=   0     80.00e < EF      0.00e >EF  Err=0.0D+00
 Gap=     0.173 Goal=     0.100 Shift=    0.000
 T=  462. Gap= 0.171 NK=0 IS=   81 IE=  687 IFin=   80
          NO(<0.9)=   0  NV(>0.1)=   0     80.00e < EF      0.00e >EF  Err=0.0D+00
 GapD=    0.173 DampG=1.000 DampE=1.000 DampFc=1.0000 IDamp=-1.
 RMSDP=2.01D-04 MaxDP=1.54D-02 DE=-4.50D-02 OVMax= 3.84D-02

 Cycle   5  Pass 1  IDiag  1:
 RMSU=  9.94D-05    CP:  9.73D-01  8.28D-01  6.69D-01  5.82D-01
 E= -1262.70530274004     Delta-E=       -0.012609652309 Rises=F Damp=F
 DIIS: error= 5.53D-04 at cycle   5 NSaved=   5.
 NSaved= 5 IEnMin= 5 EnMin= -1262.70530274004     IErMin= 5 ErrMin= 5.53D-04
 ErrMax= 5.53D-04  0.00D+00 EMaxC= 1.00D+00 BMatC= 3.22D-03 BMatP= 4.92D-02
 IDIUse=1 WtCom= 1.00D+00 WtEn= 0.00D+00
 Coeff-Com: -0.114D-01 0.395D-01 0.136D+00 0.280D+00 0.556D+00
 Coeff:     -0.114D-01 0.395D-01 0.136D+00 0.280D+00 0.556D+00
 Gap=     0.171 Goal=     0.100 Shift=    0.000
 Gap=     0.171 Goal=     0.100 Shift=    0.000
 RMSDP=5.21D-05 MaxDP=7.29D-03 DE=-1.26D-02 OVMax= 9.14D-03

 Cycle   6  Pass 1  IDiag  1:
 RMSU=  2.84D-05    CP:  9.72D-01  8.26D-01  6.82D-01  6.30D-01  6.18D-01
 E= -1262.70605592954     Delta-E=       -0.000753189498 Rises=F Damp=F
 DIIS: error= 1.78D-04 at cycle   6 NSaved=   6.
 NSaved= 6 IEnMin= 6 EnMin= -1262.70605592954     IErMin= 6 ErrMin= 1.78D-04
 ErrMax= 1.78D-04  0.00D+00 EMaxC= 1.00D+00 BMatC= 3.30D-04 BMatP= 3.22D-03
 IDIUse=1 WtCom= 1.00D+00 WtEn= 0.00D+00
 Coeff-Com: -0.344D-02 0.405D-02 0.397D-01 0.969D-01 0.295D+00 0.568D+00
 Coeff:     -0.344D-02 0.405D-02 0.397D-01 0.969D-01 0.295D+00 0.568D+00
 Gap=     0.171 Goal=     0.100 Shift=    0.000
 Gap=     0.171 Goal=     0.100 Shift=    0.000
 RMSDP=1.50D-05 MaxDP=1.03D-03 DE=-7.53D-04 OVMax= 2.97D-03

 Cycle   7  Pass 1  IDiag  1:
 RMSU=  1.12D-05    CP:  9.72D-01  8.26D-01  6.83D-01  6.30D-01  6.76D-01
                    CP:  7.14D-01
 E= -1262.70612440390     Delta-E=       -0.000068474357 Rises=F Damp=F
 DIIS: error= 7.84D-05 at cycle   7 NSaved=   7.
 NSaved= 7 IEnMin= 7 EnMin= -1262.70612440390     IErMin= 7 ErrMin= 7.84D-05
 ErrMax= 7.84D-05  0.00D+00 EMaxC= 1.00D+00 BMatC= 4.06D-05 BMatP= 3.30D-04
 IDIUse=1 WtCom= 1.00D+00 WtEn= 0.00D+00
 Coeff-Com: -0.106D-02-0.627D-03 0.134D-01 0.355D-01 0.130D+00 0.332D+00
 Coeff-Com:  0.491D+00
 Coeff:     -0.106D-02-0.627D-03 0.134D-01 0.355D-01 0.130D+00 0.332D+00
 Coeff:      0.491D+00
 Gap=     0.172 Goal=     0.100 Shift=    0.000
 Gap=     0.172 Goal=     0.100 Shift=    0.000
 RMSDP=5.94D-06 MaxDP=4.08D-04 DE=-6.85D-05 OVMax= 1.16D-03

 Cycle   8  Pass 1  IDiag  1:
 RMSU=  3.54D-06    CP:  9.72D-01  8.26D-01  6.83D-01  6.33D-01  6.79D-01
                    CP:  7.79D-01  6.19D-01
 E= -1262.70613461014     Delta-E=       -0.000010206241 Rises=F Damp=F
 DIIS: error= 2.36D-05 at cycle   8 NSaved=   8.
 NSaved= 8 IEnMin= 8 EnMin= -1262.70613461014     IErMin= 8 ErrMin= 2.36D-05
 ErrMax= 2.36D-05  0.00D+00 EMaxC= 1.00D+00 BMatC= 4.02D-06 BMatP= 4.06D-05
 IDIUse=1 WtCom= 1.00D+00 WtEn= 0.00D+00
 Coeff-Com:  0.596D-04-0.113D-02 0.123D-02 0.312D-02 0.221D-01 0.888D-01
 Coeff-Com:  0.267D+00 0.618D+00
 Coeff:      0.596D-04-0.113D-02 0.123D-02 0.312D-02 0.221D-01 0.888D-01
 Coeff:      0.267D+00 0.618D+00
 Gap=     0.172 Goal=     0.100 Shift=    0.000
 Gap=     0.172 Goal=     0.100 Shift=    0.000
 RMSDP=2.11D-06 MaxDP=1.51D-04 DE=-1.02D-05 OVMax= 5.94D-04

 Cycle   9  Pass 1  IDiag  1:
 RMSU=  1.36D-06    CP:  9.72D-01  8.26D-01  6.83D-01  6.33D-01  6.86D-01
                    CP:  7.79D-01  7.12D-01  7.20D-01
 E= -1262.70613555694     Delta-E=       -0.000000946801 Rises=F Damp=F
 DIIS: error= 1.05D-05 at cycle   9 NSaved=   9.
 NSaved= 9 IEnMin= 9 EnMin= -1262.70613555694     IErMin= 9 ErrMin= 1.05D-05
 ErrMax= 1.05D-05  0.00D+00 EMaxC= 1.00D+00 BMatC= 6.84D-07 BMatP= 4.02D-06
 IDIUse=1 WtCom= 1.00D+00 WtEn= 0.00D+00
 Coeff-Com:  0.195D-03-0.630D-03-0.832D-03-0.281D-02-0.305D-02 0.115D-01
 Coeff-Com:  0.979D-01 0.372D+00 0.526D+00
 Coeff:      0.195D-03-0.630D-03-0.832D-03-0.281D-02-0.305D-02 0.115D-01
 Coeff:      0.979D-01 0.372D+00 0.526D+00
 Gap=     0.172 Goal=     0.100 Shift=    0.000
 Gap=     0.172 Goal=     0.100 Shift=    0.000
 RMSDP=7.75D-07 MaxDP=1.04D-04 DE=-9.47D-07 OVMax= 1.32D-04

 Cycle  10  Pass 1  IDiag  1:
 RMSU=  4.44D-07    CP:  9.72D-01  8.26D-01  6.83D-01  6.33D-01  6.84D-01
                    CP:  7.88D-01  7.21D-01  7.86D-01  6.78D-01
 E= -1262.70613574472     Delta-E=       -0.000000187781 Rises=F Damp=F
 DIIS: error= 1.72D-06 at cycle  10 NSaved=  10.
 NSaved=10 IEnMin=10 EnMin= -1262.70613574472     IErMin=10 ErrMin= 1.72D-06
 ErrMax= 1.72D-06  0.00D+00 EMaxC= 1.00D+00 BMatC= 2.88D-08 BMatP= 6.84D-07
 IDIUse=1 WtCom= 1.00D+00 WtEn= 0.00D+00
 Coeff-Com:  0.812D-04-0.189D-03-0.396D-03-0.150D-02-0.296D-02-0.198D-02
 Coeff-Com:  0.197D-01 0.111D+00 0.222D+00 0.654D+00
 Coeff:      0.812D-04-0.189D-03-0.396D-03-0.150D-02-0.296D-02-0.198D-02
 Coeff:      0.197D-01 0.111D+00 0.222D+00 0.654D+00
 Gap=     0.172 Goal=     0.100 Shift=    0.000
 Gap=     0.172 Goal=     0.100 Shift=    0.000
 RMSDP=1.93D-07 MaxDP=1.13D-05 DE=-1.88D-07 OVMax= 4.33D-05

 Cycle  11  Pass 1  IDiag  1:
 RMSU=  1.33D-07    CP:  9.72D-01  8.26D-01  6.83D-01  6.33D-01  6.84D-01
                    CP:  7.89D-01  7.25D-01  8.05D-01  7.26D-01  8.21D-01
 E= -1262.70613575135     Delta-E=       -0.000000006635 Rises=F Damp=F
 DIIS: error= 9.48D-07 at cycle  11 NSaved=  11.
 NSaved=11 IEnMin=11 EnMin= -1262.70613575135     IErMin=11 ErrMin= 9.48D-07
 ErrMax= 9.48D-07  0.00D+00 EMaxC= 1.00D+00 BMatC= 5.62D-09 BMatP= 2.88D-08
 IDIUse=1 WtCom= 1.00D+00 WtEn= 0.00D+00
 Coeff-Com:  0.187D-04-0.147D-04-0.877D-04-0.451D-03-0.119D-02-0.264D-02
 Coeff-Com: -0.247D-02 0.110D-01 0.475D-01 0.349D+00 0.600D+00
 Coeff:      0.187D-04-0.147D-04-0.877D-04-0.451D-03-0.119D-02-0.264D-02
 Coeff:     -0.247D-02 0.110D-01 0.475D-01 0.349D+00 0.600D+00
 Gap=     0.172 Goal=     0.100 Shift=    0.000
 Gap=     0.172 Goal=     0.100 Shift=    0.000
 RMSDP=6.38D-08 MaxDP=4.45D-06 DE=-6.63D-09 OVMax= 1.18D-05

 Cycle  12  Pass 1  IDiag  1:
 RMSU=  3.68D-08    CP:  9.72D-01  8.26D-01  6.83D-01  6.33D-01  6.85D-01
                    CP:  7.89D-01  7.26D-01  8.07D-01  7.34D-01  8.94D-01
                    CP:  7.69D-01
 E= -1262.70613575278     Delta-E=       -0.000000001425 Rises=F Damp=F
 DIIS: error= 1.52D-07 at cycle  12 NSaved=  12.
 NSaved=12 IEnMin=12 EnMin= -1262.70613575278     IErMin=12 ErrMin= 1.52D-07
 ErrMax= 1.52D-07  0.00D+00 EMaxC= 1.00D+00 BMatC= 2.63D-10 BMatP= 5.62D-09
 IDIUse=1 WtCom= 1.00D+00 WtEn= 0.00D+00
 Coeff-Com:  0.122D-05 0.874D-05-0.273D-05-0.623D-04-0.246D-03-0.936D-03
 Coeff-Com: -0.297D-02-0.579D-02-0.212D-02 0.811D-01 0.225D+00 0.706D+00
 Coeff:      0.122D-05 0.874D-05-0.273D-05-0.623D-04-0.246D-03-0.936D-03
 Coeff:     -0.297D-02-0.579D-02-0.212D-02 0.811D-01 0.225D+00 0.706D+00
 Gap=     0.172 Goal=     0.100 Shift=    0.000
 Gap=     0.172 Goal=     0.100 Shift=    0.000
 RMSDP=2.07D-08 MaxDP=1.69D-06 DE=-1.43D-09 OVMax= 3.92D-06

 Cycle  13  Pass 1  IDiag  1:
 RMSU=  1.32D-08    CP:  9.72D-01  8.26D-01  6.83D-01  6.33D-01  6.85D-01
                    CP:  7.90D-01  7.26D-01  8.07D-01  7.38D-01  9.14D-01
                    CP:  8.18D-01  8.30D-01
 E= -1262.70613575289     Delta-E=       -0.000000000113 Rises=F Damp=F
 DIIS: error= 9.52D-08 at cycle  13 NSaved=  13.
 NSaved=13 IEnMin=13 EnMin= -1262.70613575289     IErMin=13 ErrMin= 9.52D-08
 ErrMax= 9.52D-08  0.00D+00 EMaxC= 1.00D+00 BMatC= 6.00D-11 BMatP= 2.63D-10
 IDIUse=1 WtCom= 1.00D+00 WtEn= 0.00D+00
 Coeff-Com: -0.129D-05 0.535D-05 0.954D-05 0.194D-04 0.177D-04-0.142D-03
 Coeff-Com: -0.121D-02-0.400D-02-0.649D-02 0.349D-02 0.455D-01 0.370D+00
 Coeff-Com:  0.593D+00
 Coeff:     -0.129D-05 0.535D-05 0.954D-05 0.194D-04 0.177D-04-0.142D-03
 Coeff:     -0.121D-02-0.400D-02-0.649D-02 0.349D-02 0.455D-01 0.370D+00
 Coeff:      0.593D+00
 Gap=     0.172 Goal=     0.100 Shift=    0.000
 Gap=     0.172 Goal=     0.100 Shift=    0.000
 RMSDP=7.01D-09 MaxDP=5.46D-07 DE=-1.13D-10 OVMax= 1.14D-06

 SCF Done:  E(UB3LYP) =  -1262.70613575     A.U. after   13 cycles
            NFock= 13  Conv=0.70D-08     -V/T= 2.0060
 <Sx>= 0.0000 <Sy>= 0.0000 <Sz>= 0.0000 <S**2>=-0.0000 S=-0.0000
 <L.S>=  0.00000000000    
 KE= 1.255234953109D+03 PE=-6.447322701591D+03 EE= 2.183997362681D+03
 Annihilation of the first spin contaminant:
 S**2 before annihilation    -0.0000,   after     0.0000
 Leave Link  502 at Fri Jan 31 16:30:24 2025, MaxMem= 13421772800 cpu:            3662.0 elap:              36.0
 (Enter /gpfs/fs1/soft/improv/software/custom-built/gaussian/g16/l508.exe)
 QCSCF skips out because SCF is already converged.
 Leave Link  508 at Fri Jan 31 16:30:25 2025, MaxMem= 13421772800 cpu:               0.3 elap:               0.0
 (Enter /gpfs/fs1/soft/improv/software/custom-built/gaussian/g16/l801.exe)
 DoSCS=F DFT=T ScalE2(SS,OS)=  1.000000  1.000000
 Range of M.O.s used for correlation:     1   687
 NBasis=   687 NAE=    80 NBE=    80 NFC=     0 NFV=     0
 NROrb=    687 NOA=    80 NOB=    80 NVA=   607 NVB=   607

 **** Warning!!: The largest alpha MO coefficient is  0.61032266D+02


 **** Warning!!: The largest beta MO coefficient is  0.61032266D+02

 Leave Link  801 at Fri Jan 31 16:30:25 2025, MaxMem= 13421772800 cpu:               0.4 elap:               0.0
 (Enter /gpfs/fs1/soft/improv/software/custom-built/gaussian/g16/l1101.exe)
 Using compressed storage, NAtomX=    40.
 Will process     41 centers per pass.
 R6Disp: Adding Grimme-D3 dispersion energy 1st derivatives to the gradient.
 Leave Link 1101 at Fri Jan 31 16:30:27 2025, MaxMem= 13421772800 cpu:             137.9 elap:               1.6
 (Enter /gpfs/fs1/soft/improv/software/custom-built/gaussian/g16/l1102.exe)
 Symmetrizing basis deriv contribution to polar:
 IMax=3 JMax=2 DiffMx= 0.00D+00
 Leave Link 1102 at Fri Jan 31 16:30:27 2025, MaxMem= 13421772800 cpu:               0.9 elap:               0.1
 (Enter /gpfs/fs1/soft/improv/software/custom-built/gaussian/g16/l1110.exe)
 Forming Gx(P) for the SCF density, NAtomX=    40.
 Integral derivatives from FoFJK, PRISM(SPDF).
 Do as many integral derivatives as possible in FoFJK.
 G2DrvN: MDV=   13421768544.
 G2DrvN: will do    41 centers at a time, making    1 passes.
 Calling FoFCou, ICntrl=  3107 FMM=F I1Cent=   0 AccDes= 0.00D+00.
 FoFJK:  IHMeth= 1 ICntrl=    3107 DoSepK=F KAlg= 0 I1Cent=           0 FoldK=F
 IRaf=         0 NMat=       1 IRICut=       1 DoRegI=T DoRafI=F ISym2E= 0 IDoP0=0 IntGTp=1.
 FoFCou: FMM=F IPFlag=           0 FMFlag=      100000 FMFlg1=           0
         NFxFlg=           0 DoJE=F BraDBF=F KetDBF=F FulRan=T
         wScrn=  0.000000 ICntrl=      3107 IOpCl=  1 I1Cent=           0 NGrid=           0
         NMat0=    1 NMatS0=      1 NMatT0=    0 NMatD0=    1 NMtDS0=    0 NMtDT0=    0
 Symmetry not used in FoFCou.
 End of G2Drv F.D. properties file   721 does not exist.
 End of G2Drv F.D. properties file   722 does not exist.
 End of G2Drv F.D. properties file   788 does not exist.
 Leave Link 1110 at Fri Jan 31 16:31:46 2025, MaxMem= 13421772800 cpu:            9865.4 elap:              78.3
 (Enter /gpfs/fs1/soft/improv/software/custom-built/gaussian/g16/l1002.exe)
 Minotr:  UHF open shell wavefunction.
          IDoAtm=1111111111111111111111111111111111111111
          Direct CPHF calculation.
          Differentiating once with respect to nuclear coordinates.
          Requested convergence is 1.0D-08 RMS, and 1.0D-07 maximum.
          Secondary convergence is 1.0D-12 RMS, and 1.0D-12 maximum.
          NewPWx=T KeepS1=F KeepF1=F KeepIn=T MapXYZ=F SortEE=F KeepMc=T.
        12075 words used for storage of precomputed grid.
 Two-electron integrals replicated using symmetry.
          MDV=   13421772800 using IRadAn=       1.
          Solving linear equations simultaneously, MaxMat=     384.
 FoF2E skips out because all densities are zero.
 CalDSu exits because no D1Ps are significant.
 FoFJK:  IHMeth= 1 ICntrl=       0 DoSepK=F KAlg= 0 I1Cent=           0 FoldK=F
 IRaf= 640000000 NMat=      60 IRICut=     150 DoRegI=T DoRafI=T ISym2E= 2 IDoP0=3 IntGTp=2.
 FoFCou: FMM=F IPFlag=           0 FMFlag=      100000 FMFlg1=           0
         NFxFlg=           0 DoJE=F BraDBF=F KetDBF=F FulRan=T
         wScrn=  0.000000 ICntrl=         0 IOpCl=  1 I1Cent=           0 NGrid=           0
         NMat0=   60 NMatS0=     60 NMatT0=    0 NMatD0=   60 NMtDS0=    0 NMtDT0=    0
 Integrals replicated using symmetry in FoFCou.
 Raff kept on since  58.10% of shell-pairs survive, threshold=   0.20 IRatSp=58.
          There are   123 degrees of freedom in the 1st order CPHF.  IDoFFX=6 NUNeed=     0.
    117 vectors produced by pass  0 Test12= 9.71D-14 1.00D-09 XBig12= 2.45D-01 8.15D-02.
 AX will form    59 AO Fock derivatives at one time.
    117 vectors produced by pass  1 Test12= 9.71D-14 1.00D-09 XBig12= 4.25D-02 3.19D-02.
    117 vectors produced by pass  2 Test12= 9.71D-14 1.00D-09 XBig12= 7.95D-04 2.79D-03.
    117 vectors produced by pass  3 Test12= 9.71D-14 1.00D-09 XBig12= 2.98D-06 1.03D-04.
    117 vectors produced by pass  4 Test12= 9.71D-14 1.00D-09 XBig12= 6.00D-09 7.47D-06.
    112 vectors produced by pass  5 Test12= 9.71D-14 1.00D-09 XBig12= 1.13D-11 2.73D-07.
     28 vectors produced by pass  6 Test12= 9.71D-14 1.00D-09 XBig12= 1.62D-14 8.27D-09.
 InvSVY:  IOpt=1 It=  1 EMax= 7.77D-16
 Solved reduced A of dimension   725 with   123 vectors.
 End of Minotr F.D. properties file   721 does not exist.
 End of Minotr F.D. properties file   722 does not exist.
 End of Minotr F.D. properties file   788 does not exist.
 Leave Link 1002 at Fri Jan 31 16:37:21 2025, MaxMem= 13421772800 cpu:           39956.3 elap:             335.1
 (Enter /gpfs/fs1/soft/improv/software/custom-built/gaussian/g16/l601.exe)
 Copying SCF densities to generalized density rwf, IOpCl= 1 IROHF=0.

 **********************************************************************

            Population analysis using the SCF Density.

 **********************************************************************

 Orbital symmetries:
 Alpha Orbitals:
       Occupied  (A) (A) (A) (A) (A) (A) (A) (A) (A) (A) (A) (A)
                 (A) (A) (A) (A) (A) (A) (A) (A) (A) (A) (A) (A)
                 (A) (A) (A) (A) (A) (A) (A) (A) (A) (A) (A) (A)
                 (A) (A) (A) (A) (A) (A) (A) (A) (A) (A) (A) (A)
                 (A) (A) (A) (A) (A) (A) (A) (A) (A) (A) (A) (A)
                 (A) (A) (A) (A) (A) (A) (A) (A) (A) (A) (A) (A)
                 (A) (A) (A) (A) (A) (A) (A) (A)
       Virtual   (A) (A) (A) (A) (A) (A) (A) (A) (A) (A) (A) (A)
                 (A) (A) (A) (A) (A) (A) (A) (A) (A) (A) (A) (A)
                 (A) (A) (A) (A) (A) (A) (A) (A) (A) (A) (A) (A)
                 (A) (A) (A) (A) (A) (A) (A) (A) (A) (A) (A) (A)
                 (A) (A) (A) (A) (A) (A) (A) (A) (A) (A) (A) (A)
                 (A) (A) (A) (A) (A) (A) (A) (A) (A) (A) (A) (A)
                 (A) (A) (A) (A) (A) (A) (A) (A) (A) (A) (A) (A)
                 (A) (A) (A) (A) (A) (A) (A) (A) (A) (A) (A) (A)
                 (A) (A) (A) (A) (A) (A) (A) (A) (A) (A) (A) (A)
                 (A) (A) (A) (A) (A) (A) (A) (A) (A) (A) (A) (A)
                 (A) (A) (A) (A) (A) (A) (A) (A) (A) (A) (A) (A)
                 (A) (A) (A) (A) (A) (A) (A) (A) (A) (A) (A) (A)
                 (A) (A) (A) (A) (A) (A) (A) (A) (A) (A) (A) (A)
                 (A) (A) (A) (A) (A) (A) (A) (A) (A) (A) (A) (A)
                 (A) (A) (A) (A) (A) (A) (A) (A) (A) (A) (A) (A)
                 (A) (A) (A) (A) (A) (A) (A) (A) (A) (A) (A) (A)
                 (A) (A) (A) (A) (A) (A) (A) (A) (A) (A) (A) (A)
                 (A) (A) (A) (A) (A) (A) (A) (A) (A) (A) (A) (A)
                 (A) (A) (A) (A) (A) (A) (A) (A) (A) (A) (A) (A)
                 (A) (A) (A) (A) (A) (A) (A) (A) (A) (A) (A) (A)
                 (A) (A) (A) (A) (A) (A) (A) (A) (A) (A) (A) (A)
                 (A) (A) (A) (A) (A) (A) (A) (A) (A) (A) (A) (A)
                 (A) (A) (A) (A) (A) (A) (A) (A) (A) (A) (A) (A)
                 (A) (A) (A) (A) (A) (A) (A) (A) (A) (A) (A) (A)
                 (A) (A) (A) (A) (A) (A) (A) (A) (A) (A) (A) (A)
                 (A) (A) (A) (A) (A) (A) (A) (A) (A) (A) (A) (A)
                 (A) (A) (A) (A) (A) (A) (A) (A) (A) (A) (A) (A)
                 (A) (A) (A) (A) (A) (A) (A) (A) (A) (A) (A) (A)
                 (A) (A) (A) (A) (A) (A) (A) (A) (A) (A) (A) (A)
                 (A) (A) (A) (A) (A) (A) (A) (A) (A) (A) (A) (A)
                 (A) (A) (A) (A) (A) (A) (A) (A) (A) (A) (A) (A)
                 (A) (A) (A) (A) (A) (A) (A) (A) (A) (A) (A) (A)
                 (A) (A) (A) (A) (A) (A) (A) (A) (A) (A) (A) (A)
                 (A) (A) (A) (A) (A) (A) (A) (A) (A) (A) (A) (A)
                 (A) (A) (A) (A) (A) (A) (A) (A) (A) (A) (A) (A)
                 (A) (A) (A) (A) (A) (A) (A) (A) (A) (A) (A) (A)
                 (A) (A) (A) (A) (A) (A) (A) (A) (A) (A) (A) (A)
                 (A) (A) (A) (A) (A) (A) (A) (A) (A) (A) (A) (A)
                 (A) (A) (A) (A) (A) (A) (A) (A) (A) (A) (A) (A)
                 (A) (A) (A) (A) (A) (A) (A) (A) (A) (A) (A) (A)
                 (A) (A) (A) (A) (A) (A) (A) (A) (A) (A) (A) (A)
                 (A) (A) (A) (A) (A) (A) (A) (A) (A) (A) (A) (A)
                 (A) (A) (A) (A) (A) (A) (A) (A) (A) (A) (A) (A)
                 (A) (A) (A) (A) (A) (A) (A) (A) (A) (A) (A) (A)
                 (A) (A) (A) (A) (A) (A) (A) (A) (A) (A) (A) (A)
                 (A) (A) (A) (A) (A) (A) (A) (A) (A) (A) (A) (A)
                 (A) (A) (A) (A) (A) (A) (A) (A) (A) (A) (A) (A)
                 (A) (A) (A) (A) (A) (A) (A) (A) (A) (A) (A) (A)
                 (A) (A) (A) (A) (A) (A) (A) (A) (A) (A) (A) (A)
                 (A) (A) (A) (A) (A) (A) (A) (A) (A) (A) (A) (A)
                 (A) (A) (A) (A) (A) (A) (A)
 Beta  Orbitals:
       Occupied  (A) (A) (A) (A) (A) (A) (A) (A) (A) (A) (A) (A)
                 (A) (A) (A) (A) (A) (A) (A) (A) (A) (A) (A) (A)
                 (A) (A) (A) (A) (A) (A) (A) (A) (A) (A) (A) (A)
                 (A) (A) (A) (A) (A) (A) (A) (A) (A) (A) (A) (A)
                 (A) (A) (A) (A) (A) (A) (A) (A) (A) (A) (A) (A)
                 (A) (A) (A) (A) (A) (A) (A) (A) (A) (A) (A) (A)
                 (A) (A) (A) (A) (A) (A) (A) (A)
       Virtual   (A) (A) (A) (A) (A) (A) (A) (A) (A) (A) (A) (A)
                 (A) (A) (A) (A) (A) (A) (A) (A) (A) (A) (A) (A)
                 (A) (A) (A) (A) (A) (A) (A) (A) (A) (A) (A) (A)
                 (A) (A) (A) (A) (A) (A) (A) (A) (A) (A) (A) (A)
                 (A) (A) (A) (A) (A) (A) (A) (A) (A) (A) (A) (A)
                 (A) (A) (A) (A) (A) (A) (A) (A) (A) (A) (A) (A)
                 (A) (A) (A) (A) (A) (A) (A) (A) (A) (A) (A) (A)
                 (A) (A) (A) (A) (A) (A) (A) (A) (A) (A) (A) (A)
                 (A) (A) (A) (A) (A) (A) (A) (A) (A) (A) (A) (A)
                 (A) (A) (A) (A) (A) (A) (A) (A) (A) (A) (A) (A)
                 (A) (A) (A) (A) (A) (A) (A) (A) (A) (A) (A) (A)
                 (A) (A) (A) (A) (A) (A) (A) (A) (A) (A) (A) (A)
                 (A) (A) (A) (A) (A) (A) (A) (A) (A) (A) (A) (A)
                 (A) (A) (A) (A) (A) (A) (A) (A) (A) (A) (A) (A)
                 (A) (A) (A) (A) (A) (A) (A) (A) (A) (A) (A) (A)
                 (A) (A) (A) (A) (A) (A) (A) (A) (A) (A) (A) (A)
                 (A) (A) (A) (A) (A) (A) (A) (A) (A) (A) (A) (A)
                 (A) (A) (A) (A) (A) (A) (A) (A) (A) (A) (A) (A)
                 (A) (A) (A) (A) (A) (A) (A) (A) (A) (A) (A) (A)
                 (A) (A) (A) (A) (A) (A) (A) (A) (A) (A) (A) (A)
                 (A) (A) (A) (A) (A) (A) (A) (A) (A) (A) (A) (A)
                 (A) (A) (A) (A) (A) (A) (A) (A) (A) (A) (A) (A)
                 (A) (A) (A) (A) (A) (A) (A) (A) (A) (A) (A) (A)
                 (A) (A) (A) (A) (A) (A) (A) (A) (A) (A) (A) (A)
                 (A) (A) (A) (A) (A) (A) (A) (A) (A) (A) (A) (A)
                 (A) (A) (A) (A) (A) (A) (A) (A) (A) (A) (A) (A)
                 (A) (A) (A) (A) (A) (A) (A) (A) (A) (A) (A) (A)
                 (A) (A) (A) (A) (A) (A) (A) (A) (A) (A) (A) (A)
                 (A) (A) (A) (A) (A) (A) (A) (A) (A) (A) (A) (A)
                 (A) (A) (A) (A) (A) (A) (A) (A) (A) (A) (A) (A)
                 (A) (A) (A) (A) (A) (A) (A) (A) (A) (A) (A) (A)
                 (A) (A) (A) (A) (A) (A) (A) (A) (A) (A) (A) (A)
                 (A) (A) (A) (A) (A) (A) (A) (A) (A) (A) (A) (A)
                 (A) (A) (A) (A) (A) (A) (A) (A) (A) (A) (A) (A)
                 (A) (A) (A) (A) (A) (A) (A) (A) (A) (A) (A) (A)
                 (A) (A) (A) (A) (A) (A) (A) (A) (A) (A) (A) (A)
                 (A) (A) (A) (A) (A) (A) (A) (A) (A) (A) (A) (A)
                 (A) (A) (A) (A) (A) (A) (A) (A) (A) (A) (A) (A)
                 (A) (A) (A) (A) (A) (A) (A) (A) (A) (A) (A) (A)
                 (A) (A) (A) (A) (A) (A) (A) (A) (A) (A) (A) (A)
                 (A) (A) (A) (A) (A) (A) (A) (A) (A) (A) (A) (A)
                 (A) (A) (A) (A) (A) (A) (A) (A) (A) (A) (A) (A)
                 (A) (A) (A) (A) (A) (A) (A) (A) (A) (A) (A) (A)
                 (A) (A) (A) (A) (A) (A) (A) (A) (A) (A) (A) (A)
                 (A) (A) (A) (A) (A) (A) (A) (A) (A) (A) (A) (A)
                 (A) (A) (A) (A) (A) (A) (A) (A) (A) (A) (A) (A)
                 (A) (A) (A) (A) (A) (A) (A) (A) (A) (A) (A) (A)
                 (A) (A) (A) (A) (A) (A) (A) (A) (A) (A) (A) (A)
                 (A) (A) (A) (A) (A) (A) (A) (A) (A) (A) (A) (A)
                 (A) (A) (A) (A) (A) (A) (A) (A) (A) (A) (A) (A)
                 (A) (A) (A) (A) (A) (A) (A)
 The electronic state is 1-A.
 Alpha  occ. eigenvalues --  -88.88217 -19.14175 -19.13788 -14.35885 -10.22960
 Alpha  occ. eigenvalues --  -10.22920 -10.22827 -10.22814 -10.22768 -10.22241
 Alpha  occ. eigenvalues --  -10.22137 -10.21130 -10.21072 -10.18636 -10.18573
 Alpha  occ. eigenvalues --  -10.18453 -10.18376 -10.18363 -10.18292 -10.18001
 Alpha  occ. eigenvalues --  -10.17922  -7.94411  -5.90883  -5.90545  -5.89999
 Alpha  occ. eigenvalues --   -1.04451  -1.03038  -0.97408  -0.86277  -0.85854
 Alpha  occ. eigenvalues --   -0.80145  -0.77931  -0.76121  -0.74875  -0.74498
 Alpha  occ. eigenvalues --   -0.71877  -0.68103  -0.66860  -0.63887  -0.62599
 Alpha  occ. eigenvalues --   -0.60357  -0.60023  -0.59039  -0.56003  -0.54456
 Alpha  occ. eigenvalues --   -0.52062  -0.50282  -0.49902  -0.48273  -0.47726
 Alpha  occ. eigenvalues --   -0.47111  -0.46425  -0.46325  -0.45489  -0.44509
 Alpha  occ. eigenvalues --   -0.43818  -0.43603  -0.42003  -0.41634  -0.40799
 Alpha  occ. eigenvalues --   -0.40232  -0.38871  -0.38464  -0.36948  -0.36790
 Alpha  occ. eigenvalues --   -0.36324  -0.35989  -0.35558  -0.33783  -0.32782
 Alpha  occ. eigenvalues --   -0.32314  -0.31384  -0.30470  -0.29471  -0.26387
 Alpha  occ. eigenvalues --   -0.25610  -0.25203  -0.24973  -0.22140  -0.18195
 Alpha virt. eigenvalues --   -0.01034  -0.00546   0.00138   0.01720   0.03853
 Alpha virt. eigenvalues --    0.07619   0.08895   0.09250   0.10543   0.11604
 Alpha virt. eigenvalues --    0.12636   0.12846   0.13598   0.14014   0.14399
 Alpha virt. eigenvalues --    0.14868   0.15142   0.15509   0.16021   0.16247
 Alpha virt. eigenvalues --    0.16829   0.17298   0.17772   0.18028   0.18479
 Alpha virt. eigenvalues --    0.19079   0.19319   0.20005   0.20488   0.21413
 Alpha virt. eigenvalues --    0.22371   0.22573   0.23076   0.24719   0.25546
 Alpha virt. eigenvalues --    0.26470   0.26741   0.28239   0.29763   0.30194
 Alpha virt. eigenvalues --    0.30737   0.31960   0.32861   0.33434   0.35756
 Alpha virt. eigenvalues --    0.37623   0.38203   0.38559   0.40148   0.40527
 Alpha virt. eigenvalues --    0.41955   0.42193   0.42375   0.43201   0.44016
 Alpha virt. eigenvalues --    0.44439   0.46591   0.47499   0.47726   0.49078
 Alpha virt. eigenvalues --    0.49489   0.50338   0.50524   0.50998   0.51179
 Alpha virt. eigenvalues --    0.51755   0.52196   0.52492   0.52663   0.52835
 Alpha virt. eigenvalues --    0.54186   0.54962   0.56366   0.56822   0.57209
 Alpha virt. eigenvalues --    0.57334   0.58887   0.58915   0.59205   0.59719
 Alpha virt. eigenvalues --    0.60575   0.60700   0.62677   0.63227   0.63808
 Alpha virt. eigenvalues --    0.64697   0.65930   0.66401   0.67381   0.67735
 Alpha virt. eigenvalues --    0.68508   0.69098   0.69504   0.69915   0.70156
 Alpha virt. eigenvalues --    0.70237   0.71087   0.71528   0.72452   0.72677
 Alpha virt. eigenvalues --    0.73069   0.73852   0.74211   0.74726   0.75256
 Alpha virt. eigenvalues --    0.75640   0.76412   0.76576   0.76988   0.77378
 Alpha virt. eigenvalues --    0.77967   0.78934   0.79347   0.79746   0.80152
 Alpha virt. eigenvalues --    0.81346   0.82588   0.82638   0.82980   0.83566
 Alpha virt. eigenvalues --    0.84593   0.84988   0.85372   0.85746   0.86172
 Alpha virt. eigenvalues --    0.86439   0.88052   0.88186   0.88694   0.89375
 Alpha virt. eigenvalues --    0.89942   0.90053   0.90789   0.91136   0.93014
 Alpha virt. eigenvalues --    0.93395   0.94008   0.95066   0.95898   0.96455
 Alpha virt. eigenvalues --    0.97477   0.97695   0.98763   0.99725   1.00100
 Alpha virt. eigenvalues --    1.01905   1.02398   1.03291   1.04272   1.04864
 Alpha virt. eigenvalues --    1.06696   1.07391   1.08794   1.09512   1.11604
 Alpha virt. eigenvalues --    1.12986   1.14562   1.15109   1.17838   1.19048
 Alpha virt. eigenvalues --    1.19583   1.21349   1.21923   1.22759   1.24595
 Alpha virt. eigenvalues --    1.25178   1.26506   1.26896   1.27363   1.28006
 Alpha virt. eigenvalues --    1.28918   1.30020   1.31213   1.32385   1.32859
 Alpha virt. eigenvalues --    1.34179   1.35830   1.36148   1.37150   1.37751
 Alpha virt. eigenvalues --    1.38750   1.39383   1.39961   1.40679   1.41424
 Alpha virt. eigenvalues --    1.42808   1.44094   1.44890   1.45193   1.45668
 Alpha virt. eigenvalues --    1.46145   1.48126   1.48977   1.49920   1.50518
 Alpha virt. eigenvalues --    1.50697   1.51240   1.52135   1.52482   1.53441
 Alpha virt. eigenvalues --    1.54530   1.55582   1.55816   1.57037   1.57318
 Alpha virt. eigenvalues --    1.58271   1.60328   1.61667   1.62187   1.62792
 Alpha virt. eigenvalues --    1.63699   1.65450   1.66761   1.67154   1.67911
 Alpha virt. eigenvalues --    1.68842   1.69940   1.70418   1.71483   1.72155
 Alpha virt. eigenvalues --    1.73498   1.74357   1.76277   1.77142   1.77715
 Alpha virt. eigenvalues --    1.78569   1.79577   1.80320   1.81828   1.82474
 Alpha virt. eigenvalues --    1.83971   1.85189   1.87045   1.87375   1.87530
 Alpha virt. eigenvalues --    1.89161   1.90668   1.91556   1.92403   1.92562
 Alpha virt. eigenvalues --    1.93182   1.93759   1.94610   1.96248   1.96656
 Alpha virt. eigenvalues --    1.96949   2.00029   2.01673   2.02382   2.03574
 Alpha virt. eigenvalues --    2.05417   2.08977   2.10902   2.11098   2.11631
 Alpha virt. eigenvalues --    2.12520   2.13151   2.15613   2.16586   2.17240
 Alpha virt. eigenvalues --    2.19247   2.21188   2.21260   2.24238   2.25073
 Alpha virt. eigenvalues --    2.25702   2.25772   2.26282   2.26823   2.27729
 Alpha virt. eigenvalues --    2.29150   2.29805   2.30519   2.32108   2.32915
 Alpha virt. eigenvalues --    2.33897   2.35898   2.36328   2.37349   2.38540
 Alpha virt. eigenvalues --    2.40259   2.41619   2.43261   2.45441   2.45943
 Alpha virt. eigenvalues --    2.46613   2.48687   2.50960   2.52844   2.54638
 Alpha virt. eigenvalues --    2.59157   2.59698   2.61531   2.62146   2.63947
 Alpha virt. eigenvalues --    2.66426   2.67144   2.67628   2.70493   2.72576
 Alpha virt. eigenvalues --    2.73771   2.74436   2.75162   2.76582   2.77776
 Alpha virt. eigenvalues --    2.78138   2.80078   2.81114   2.81210   2.82040
 Alpha virt. eigenvalues --    2.82374   2.83538   2.84304   2.86043   2.86494
 Alpha virt. eigenvalues --    2.87635   2.89016   2.89409   2.90386   2.90988
 Alpha virt. eigenvalues --    2.91593   2.92378   2.93685   2.94051   2.95368
 Alpha virt. eigenvalues --    2.96518   2.96877   2.98519   3.00675   3.01440
 Alpha virt. eigenvalues --    3.03220   3.03708   3.04426   3.05247   3.06586
 Alpha virt. eigenvalues --    3.07613   3.07849   3.08971   3.09097   3.09697
 Alpha virt. eigenvalues --    3.10073   3.10784   3.10953   3.12165   3.12646
 Alpha virt. eigenvalues --    3.12762   3.14125   3.14526   3.15080   3.15517
 Alpha virt. eigenvalues --    3.16580   3.17393   3.18032   3.18083   3.18847
 Alpha virt. eigenvalues --    3.19150   3.20316   3.21710   3.23972   3.24081
 Alpha virt. eigenvalues --    3.24552   3.25564   3.26052   3.26951   3.27670
 Alpha virt. eigenvalues --    3.28885   3.30829   3.31249   3.32044   3.33352
 Alpha virt. eigenvalues --    3.33643   3.33777   3.34428   3.35638   3.36155
 Alpha virt. eigenvalues --    3.36946   3.38554   3.39230   3.40810   3.41980
 Alpha virt. eigenvalues --    3.43722   3.44424   3.44945   3.45673   3.47826
 Alpha virt. eigenvalues --    3.48025   3.48758   3.50488   3.51345   3.51889
 Alpha virt. eigenvalues --    3.52509   3.53764   3.54095   3.54284   3.55379
 Alpha virt. eigenvalues --    3.56694   3.57585   3.58192   3.59001   3.60874
 Alpha virt. eigenvalues --    3.61728   3.63444   3.65168   3.65463   3.67743
 Alpha virt. eigenvalues --    3.68997   3.69476   3.69929   3.70597   3.72243
 Alpha virt. eigenvalues --    3.73528   3.75762   3.76605   3.77336   3.78197
 Alpha virt. eigenvalues --    3.79653   3.80356   3.81577   3.83640   3.84076
 Alpha virt. eigenvalues --    3.86412   3.87610   3.88270   3.90523   3.92640
 Alpha virt. eigenvalues --    3.93606   3.94186   3.94779   3.98310   3.99080
 Alpha virt. eigenvalues --    4.02110   4.04100   4.06794   4.08866   4.09765
 Alpha virt. eigenvalues --    4.13899   4.15408   4.16242   4.16671   4.22085
 Alpha virt. eigenvalues --    4.24030   4.24684   4.25321   4.26628   4.28326
 Alpha virt. eigenvalues --    4.29581   4.31501   4.33887   4.36068   4.36944
 Alpha virt. eigenvalues --    4.38151   4.39186   4.40210   4.40876   4.41583
 Alpha virt. eigenvalues --    4.42855   4.43371   4.44375   4.44894   4.46098
 Alpha virt. eigenvalues --    4.46341   4.47337   4.47932   4.48002   4.48244
 Alpha virt. eigenvalues --    4.48789   4.49090   4.49505   4.50125   4.50485
 Alpha virt. eigenvalues --    4.50724   4.50944   4.51893   4.52088   4.52877
 Alpha virt. eigenvalues --    4.53362   4.53880   4.55329   4.55952   4.56264
 Alpha virt. eigenvalues --    4.56599   4.56796   4.57338   4.58115   4.59763
 Alpha virt. eigenvalues --    4.60488   4.60539   4.61544   4.62633   4.64058
 Alpha virt. eigenvalues --    4.65679   4.66757   4.67394   4.67686   4.67763
 Alpha virt. eigenvalues --    4.68701   4.69083   4.71526   4.71956   4.72736
 Alpha virt. eigenvalues --    4.72958   4.74409   4.74785   4.75987   4.77531
 Alpha virt. eigenvalues --    4.78554   4.79018   4.79954   4.81700   4.81942
 Alpha virt. eigenvalues --    4.84032   4.85778   4.86505   4.88181   4.88775
 Alpha virt. eigenvalues --    4.89221   4.90556   4.91665   4.93606   4.95906
 Alpha virt. eigenvalues --    4.97293   5.00674   5.01866   5.03252   5.04418
 Alpha virt. eigenvalues --    5.06352   5.08298   5.08676   5.09253   5.11914
 Alpha virt. eigenvalues --    5.13360   5.18349   5.20908   5.25367   5.26635
 Alpha virt. eigenvalues --    5.27187   5.27961   5.29735   5.30855   5.31757
 Alpha virt. eigenvalues --    5.32649   5.34664   5.36966   5.40378   5.41020
 Alpha virt. eigenvalues --    5.41758   5.42583   5.43075   5.43831   5.45594
 Alpha virt. eigenvalues --    5.50816   5.51771   5.53079   5.55521   5.55770
 Alpha virt. eigenvalues --    5.58519   5.59471   5.62293   5.64809   5.73806
 Alpha virt. eigenvalues --    5.74572   5.77283   5.80362   5.82028   5.83575
 Alpha virt. eigenvalues --    5.85913   5.86253   5.90016   5.93595   5.95016
 Alpha virt. eigenvalues --    5.97470   6.00907   6.02373   6.05707   6.08349
 Alpha virt. eigenvalues --    6.09217   6.10175   6.14673   6.20379   6.24861
 Alpha virt. eigenvalues --    6.30739   6.40951   7.04237   7.18261   8.46913
 Alpha virt. eigenvalues --    8.53241   9.74025   9.78829  10.59173  10.64438
 Alpha virt. eigenvalues --   10.66452  10.84349  11.10672  11.28947  11.32165
 Alpha virt. eigenvalues --   11.51195  11.67099  11.74004  11.78644  11.86261
 Alpha virt. eigenvalues --   11.95076  12.28178  12.75276  12.89416  13.35001
 Alpha virt. eigenvalues --   13.58320  23.88187
  Beta  occ. eigenvalues --  -88.88217 -19.14175 -19.13788 -14.35885 -10.22960
  Beta  occ. eigenvalues --  -10.22920 -10.22827 -10.22814 -10.22768 -10.22241
  Beta  occ. eigenvalues --  -10.22137 -10.21130 -10.21072 -10.18636 -10.18573
  Beta  occ. eigenvalues --  -10.18453 -10.18376 -10.18363 -10.18292 -10.18001
  Beta  occ. eigenvalues --  -10.17922  -7.94411  -5.90883  -5.90545  -5.89999
  Beta  occ. eigenvalues --   -1.04451  -1.03038  -0.97408  -0.86277  -0.85854
  Beta  occ. eigenvalues --   -0.80145  -0.77931  -0.76121  -0.74875  -0.74498
  Beta  occ. eigenvalues --   -0.71877  -0.68103  -0.66860  -0.63887  -0.62599
  Beta  occ. eigenvalues --   -0.60357  -0.60023  -0.59039  -0.56003  -0.54456
  Beta  occ. eigenvalues --   -0.52062  -0.50282  -0.49902  -0.48273  -0.47726
  Beta  occ. eigenvalues --   -0.47111  -0.46425  -0.46325  -0.45489  -0.44509
  Beta  occ. eigenvalues --   -0.43818  -0.43603  -0.42003  -0.41634  -0.40799
  Beta  occ. eigenvalues --   -0.40232  -0.38871  -0.38464  -0.36948  -0.36790
  Beta  occ. eigenvalues --   -0.36324  -0.35989  -0.35558  -0.33783  -0.32782
  Beta  occ. eigenvalues --   -0.32314  -0.31384  -0.30470  -0.29471  -0.26387
  Beta  occ. eigenvalues --   -0.25610  -0.25203  -0.24973  -0.22140  -0.18195
  Beta virt. eigenvalues --   -0.01034  -0.00546   0.00138   0.01720   0.03853
  Beta virt. eigenvalues --    0.07619   0.08895   0.09250   0.10543   0.11604
  Beta virt. eigenvalues --    0.12636   0.12846   0.13598   0.14014   0.14399
  Beta virt. eigenvalues --    0.14868   0.15142   0.15509   0.16021   0.16247
  Beta virt. eigenvalues --    0.16829   0.17298   0.17772   0.18028   0.18479
  Beta virt. eigenvalues --    0.19079   0.19319   0.20005   0.20488   0.21413
  Beta virt. eigenvalues --    0.22371   0.22573   0.23076   0.24719   0.25546
  Beta virt. eigenvalues --    0.26470   0.26741   0.28239   0.29763   0.30194
  Beta virt. eigenvalues --    0.30737   0.31960   0.32861   0.33434   0.35756
  Beta virt. eigenvalues --    0.37623   0.38203   0.38559   0.40148   0.40527
  Beta virt. eigenvalues --    0.41955   0.42193   0.42375   0.43201   0.44016
  Beta virt. eigenvalues --    0.44439   0.46591   0.47499   0.47726   0.49078
  Beta virt. eigenvalues --    0.49489   0.50338   0.50524   0.50998   0.51179
  Beta virt. eigenvalues --    0.51755   0.52196   0.52492   0.52663   0.52835
  Beta virt. eigenvalues --    0.54186   0.54962   0.56366   0.56822   0.57209
  Beta virt. eigenvalues --    0.57334   0.58887   0.58915   0.59205   0.59719
  Beta virt. eigenvalues --    0.60575   0.60700   0.62677   0.63227   0.63808
  Beta virt. eigenvalues --    0.64697   0.65930   0.66401   0.67381   0.67735
  Beta virt. eigenvalues --    0.68508   0.69098   0.69504   0.69915   0.70156
  Beta virt. eigenvalues --    0.70237   0.71087   0.71528   0.72452   0.72677
[...]
    21  H(1)              -0.00000      -0.00000      -0.00000      -0.00000
    22  S(33)             -0.00000      -0.00000      -0.00000      -0.00000
    23  C(13)             -0.00000      -0.00000      -0.00000      -0.00000
    24  H(1)               0.00000       0.00000       0.00000       0.00000
    25  H(1)              -0.00000      -0.00000      -0.00000      -0.00000
    26  C(13)              0.00000       0.00000       0.00000       0.00000
    27  H(1)              -0.00000      -0.00000      -0.00000      -0.00000
    28  H(1)               0.00000       0.00000       0.00000       0.00000
    29  O(17)              0.00000      -0.00000      -0.00000      -0.00000
    30  C(13)             -0.00000      -0.00000      -0.00000      -0.00000
    31  H(1)               0.00000       0.00000       0.00000       0.00000
    32  H(1)               0.00000       0.00000       0.00000       0.00000
    33  C(13)              0.00000       0.00000       0.00000       0.00000
    34  H(1)               0.00000       0.00000       0.00000       0.00000
    35  H(1)               0.00000       0.00000       0.00000       0.00000
    36  O(17)             -0.00000       0.00000       0.00000       0.00000
    37  C(13)             -0.00000      -0.00000      -0.00000      -0.00000
    38  H(1)              -0.00000      -0.00000      -0.00000      -0.00000
    39  H(1)              -0.00000      -0.00000      -0.00000      -0.00000
    40  H(1)              -0.00000      -0.00000      -0.00000      -0.00000
 --------------------------------------------------------
       Center         ----  Spin Dipole Couplings  ----
                      3XX-RR        3YY-RR        3ZZ-RR
 --------------------------------------------------------
     1   Atom        0.000000     -0.000000      0.000000
     2   Atom        0.000000     -0.000000     -0.000000
     3   Atom       -0.000000      0.000000      0.000000
     4   Atom       -0.000000      0.000000      0.000000
     5   Atom       -0.000000      0.000000     -0.000000
     6   Atom        0.000000      0.000000     -0.000000
     7   Atom       -0.000000      0.000000      0.000000
     8   Atom        0.000000     -0.000000      0.000000
     9   Atom       -0.000000     -0.000000      0.000000
    10   Atom       -0.000000      0.000000      0.000000
    11   Atom       -0.000000      0.000000     -0.000000
    12   Atom        0.000000     -0.000000      0.000000
    13   Atom       -0.000000      0.000000     -0.000000
    14   Atom       -0.000000      0.000000     -0.000000
    15   Atom       -0.000000     -0.000000      0.000000
    16   Atom       -0.000000      0.000000      0.000000
    17   Atom        0.000000      0.000000     -0.000000
    18   Atom        0.000000     -0.000000      0.000000
    19   Atom       -0.000000      0.000000     -0.000000
    20   Atom       -0.000000      0.000000     -0.000000
    21   Atom        0.000000     -0.000000     -0.000000
    22   Atom       -0.000000     -0.000000      0.000000
    23   Atom       -0.000000      0.000000     -0.000000
    24   Atom        0.000000     -0.000000     -0.000000
    25   Atom        0.000000      0.000000     -0.000000
    26   Atom       -0.000000     -0.000000      0.000000
    27   Atom       -0.000000     -0.000000      0.000000
    28   Atom       -0.000000     -0.000000      0.000000
    29   Atom        0.000000     -0.000000      0.000000
    30   Atom       -0.000000     -0.000000      0.000000
    31   Atom       -0.000000     -0.000000      0.000000
    32   Atom        0.000000      0.000000     -0.000000
    33   Atom       -0.000000     -0.000000      0.000000
    34   Atom        0.000000     -0.000000      0.000000
    35   Atom       -0.000000      0.000000     -0.000000
    36   Atom        0.000000     -0.000000      0.000000
    37   Atom       -0.000000      0.000000     -0.000000
    38   Atom        0.000000      0.000000     -0.000000
    39   Atom       -0.000000      0.000000     -0.000000
    40   Atom       -0.000000      0.000000     -0.000000
 --------------------------------------------------------
                        XY            XZ            YZ
 --------------------------------------------------------
     1   Atom        0.000000     -0.000000     -0.000000
     2   Atom        0.000000     -0.000000     -0.000000
     3   Atom        0.000000     -0.000000     -0.000000
     4   Atom        0.000000     -0.000000     -0.000000
     5   Atom       -0.000000      0.000000     -0.000000
     6   Atom        0.000000     -0.000000      0.000000
     7   Atom       -0.000000     -0.000000     -0.000000
     8   Atom        0.000000     -0.000000      0.000000
     9   Atom       -0.000000      0.000000     -0.000000
    10   Atom       -0.000000      0.000000     -0.000000
    11   Atom        0.000000      0.000000     -0.000000
    12   Atom        0.000000      0.000000      0.000000
    13   Atom        0.000000     -0.000000      0.000000
    14   Atom       -0.000000      0.000000      0.000000
    15   Atom        0.000000     -0.000000     -0.000000
    16   Atom       -0.000000     -0.000000     -0.000000
    17   Atom       -0.000000      0.000000      0.000000
    18   Atom       -0.000000      0.000000      0.000000
    19   Atom       -0.000000      0.000000     -0.000000
    20   Atom        0.000000     -0.000000     -0.000000
    21   Atom        0.000000      0.000000      0.000000
    22   Atom       -0.000000      0.000000      0.000000
    23   Atom       -0.000000     -0.000000      0.000000
    24   Atom        0.000000     -0.000000      0.000000
    25   Atom        0.000000     -0.000000      0.000000
    26   Atom       -0.000000      0.000000     -0.000000
    27   Atom        0.000000     -0.000000     -0.000000
    28   Atom       -0.000000      0.000000     -0.000000
    29   Atom       -0.000000      0.000000     -0.000000
    30   Atom       -0.000000     -0.000000      0.000000
    31   Atom       -0.000000     -0.000000     -0.000000
    32   Atom       -0.000000      0.000000     -0.000000
    33   Atom        0.000000     -0.000000      0.000000
    34   Atom       -0.000000      0.000000     -0.000000
    35   Atom       -0.000000      0.000000      0.000000
    36   Atom       -0.000000     -0.000000     -0.000000
    37   Atom        0.000000      0.000000     -0.000000
    38   Atom       -0.000000      0.000000      0.000000
    39   Atom       -0.000000      0.000000     -0.000000
    40   Atom        0.000000      0.000000      0.000000
 --------------------------------------------------------


 ---------------------------------------------------------------------------------
              Anisotropic Spin Dipole Couplings in Principal Axis System
 ---------------------------------------------------------------------------------

       Atom             a.u.   MegaHertz   Gauss  10(-4) cm-1        Axes

              Baa    -0.0000    -0.000    -0.000    -0.000 -0.0371  0.8781  0.4771
     1 C(13)  Bbb     0.0000     0.000     0.000     0.000  0.9179 -0.1588  0.3636
              Bcc     0.0000     0.000     0.000     0.000 -0.3951 -0.4514  0.8001
 
              Baa    -0.0000    -0.000    -0.000    -0.000  0.0689  0.7022  0.7086
     2 C(13)  Bbb    -0.0000    -0.000    -0.000    -0.000 -0.2682  0.6972 -0.6648
              Bcc     0.0000     0.000     0.000     0.000  0.9609  0.1442 -0.2364
 
              Baa    -0.0000    -0.000    -0.000    -0.000  0.9940 -0.0932  0.0570
     3 C(13)  Bbb     0.0000     0.000     0.000     0.000  0.0111  0.6052  0.7960
              Bcc     0.0000     0.000     0.000     0.000  0.1087  0.7906 -0.6026
 
              Baa    -0.0000    -0.000    -0.000    -0.000  0.8901  0.1185  0.4400
     4 C(13)  Bbb    -0.0000    -0.000    -0.000    -0.000 -0.3493  0.7975  0.4919
              Bcc     0.0000     0.000     0.000     0.000 -0.2927 -0.5915  0.7513
 
              Baa    -0.0000    -0.000    -0.000    -0.000 -0.1919  0.4278  0.8833
     5 C(13)  Bbb    -0.0000    -0.000    -0.000    -0.000  0.9561  0.2847  0.0698
              Bcc     0.0000     0.000     0.000     0.000 -0.2216  0.8579 -0.4636
 
              Baa    -0.0000    -0.000    -0.000    -0.000  0.3357 -0.3282  0.8829
     6 C(13)  Bbb     0.0000     0.000     0.000     0.000  0.1630  0.9435  0.2887
              Bcc     0.0000     0.000     0.000     0.000  0.9277 -0.0470 -0.3703
 
              Baa    -0.0000    -0.000    -0.000    -0.000  0.9319  0.2399  0.2722
     7 N(14)  Bbb     0.0000     0.000     0.000     0.000 -0.3199  0.8972  0.3045
              Bcc     0.0000     0.000     0.000     0.000 -0.1711 -0.3709  0.9128
 
              Baa    -0.0000    -0.000    -0.000    -0.000 -0.2612  0.9513 -0.1640
     8 C(13)  Bbb     0.0000     0.000     0.000     0.000  0.2060  0.2209  0.9533
              Bcc     0.0000     0.000     0.000     0.000  0.9431  0.2152 -0.2536
 
              Baa    -0.0000    -0.000    -0.000    -0.000  0.6691  0.7290 -0.1442
     9 C(13)  Bbb    -0.0000    -0.000    -0.000    -0.000 -0.6727  0.6766  0.2994
              Bcc     0.0000     0.000     0.000     0.000  0.3158 -0.1033  0.9432
 
              Baa    -0.0000    -0.000    -0.000    -0.000  0.8975  0.4410 -0.0027
    10 C(13)  Bbb    -0.0000    -0.000    -0.000    -0.000 -0.2686  0.5517  0.7896
              Bcc     0.0000     0.000     0.000     0.000 -0.3497  0.7080 -0.6136
 
              Baa    -0.0000    -0.000    -0.000    -0.000  0.7378 -0.2463 -0.6285
    11 C(13)  Bbb     0.0000     0.000     0.000     0.000  0.6367 -0.0554  0.7691
              Bcc     0.0000     0.000     0.000     0.000  0.2243  0.9676 -0.1159
 
              Baa    -0.0000    -0.000    -0.000    -0.000  0.7093  0.0189 -0.7046
    12 C(13)  Bbb    -0.0000    -0.000    -0.000    -0.000 -0.1765  0.9726 -0.1515
              Bcc     0.0000     0.000     0.000     0.000  0.6824  0.2318  0.6932
 
              Baa    -0.0000    -0.000    -0.000    -0.000  0.2602 -0.3600  0.8959
    13 C(13)  Bbb    -0.0000    -0.000    -0.000    -0.000  0.9656  0.0966 -0.2416
              Bcc     0.0000     0.000     0.000     0.000  0.0004  0.9280  0.3727
 
              Baa    -0.0000    -0.000    -0.000    -0.000 -0.3650 -0.4809  0.7972
    14 H(1)   Bbb    -0.0000    -0.000    -0.000    -0.000  0.9267 -0.1056  0.3606
              Bcc     0.0000     0.000     0.000     0.000 -0.0892  0.8704  0.4842
 
              Baa    -0.0000    -0.000    -0.000    -0.000 -0.5434  0.8205  0.1776
    15 H(1)   Bbb     0.0000     0.000     0.000     0.000  0.7308  0.3582  0.5811
              Bcc     0.0000     0.000     0.000     0.000 -0.4131 -0.4456  0.7942
 
              Baa    -0.0000    -0.000    -0.000    -0.000  0.8108  0.4087  0.4190
    16 H(1)   Bbb     0.0000     0.000     0.000     0.000 -0.5138  0.8399  0.1749
              Bcc     0.0000     0.000     0.000     0.000 -0.2805 -0.3571  0.8910
 
              Baa    -0.0000    -0.000    -0.000    -0.000 -0.2708 -0.3628  0.8917
    17 H(1)   Bbb     0.0000     0.000     0.000     0.000  0.7265  0.5307  0.4366
              Bcc     0.0000     0.000     0.000     0.000 -0.6315  0.7660  0.1198
 
              Baa    -0.0000    -0.000    -0.000    -0.000  0.1726  0.9776 -0.1208
    18 H(1)   Bbb     0.0000     0.000     0.000     0.000  0.7540 -0.2100 -0.6224
              Bcc     0.0000     0.000     0.000     0.000  0.6338 -0.0164  0.7734
 
              Baa    -0.0000    -0.000    -0.000    -0.000 -0.4740  0.2175  0.8532
    19 H(1)   Bbb    -0.0000    -0.000    -0.000    -0.000  0.7462  0.6137  0.2581
              Bcc     0.0000     0.000     0.000     0.000 -0.4675  0.7590 -0.4532
 
              Baa    -0.0000    -0.000    -0.000    -0.000  0.6963 -0.4742 -0.5388
    20 H(1)   Bbb    -0.0000    -0.000    -0.000    -0.000  0.7014  0.2902  0.6510
              Bcc     0.0000     0.000     0.000     0.000  0.1523  0.8312 -0.5347
 
              Baa    -0.0000    -0.000    -0.000    -0.000 -0.3342  0.8488 -0.4097
    21 H(1)   Bbb    -0.0000    -0.000    -0.000    -0.000 -0.4357  0.2463  0.8657
              Bcc     0.0000     0.000     0.000     0.000  0.8357  0.4679  0.2875
 
              Baa    -0.0000    -0.000    -0.000    -0.000  0.9442  0.2923 -0.1517
    22 S(33)  Bbb    -0.0000    -0.000    -0.000    -0.000 -0.3064  0.9486 -0.0788
              Bcc     0.0000     0.000     0.000     0.000  0.1209  0.1209  0.9853
 
              Baa    -0.0000    -0.000    -0.000    -0.000  0.6658  0.0658  0.7432
    23 C(13)  Bbb     0.0000     0.000     0.000     0.000  0.6655  0.3979 -0.6315
              Bcc     0.0000     0.000     0.000     0.000 -0.3373  0.9151  0.2212
 
              Baa    -0.0000    -0.000    -0.000    -0.000 -0.3749  0.6716 -0.6391
    24 H(1)   Bbb     0.0000     0.000     0.000     0.000  0.0221  0.6956  0.7180
              Bcc     0.0000     0.000     0.000     0.000  0.9268  0.2551 -0.2757
 
              Baa    -0.0000    -0.000    -0.000    -0.000  0.1269 -0.6345  0.7625
    25 H(1)   Bbb     0.0000     0.000     0.000     0.000  0.9896  0.0287 -0.1408
              Bcc     0.0000     0.000     0.000     0.000  0.0675  0.7724  0.6315
 
              Baa    -0.0000    -0.000    -0.000    -0.000  0.4213  0.9060  0.0419
    26 C(13)  Bbb    -0.0000    -0.000    -0.000    -0.000  0.7890 -0.3433 -0.5096
              Bcc     0.0000     0.000     0.000     0.000  0.4473 -0.2477  0.8594
 
              Baa    -0.0000    -0.000    -0.000    -0.000 -0.3418  0.9398  0.0017
    27 H(1)   Bbb    -0.0000    -0.000    -0.000    -0.000  0.9372  0.3407  0.0748
              Bcc     0.0000     0.000     0.000     0.000 -0.0697 -0.0271  0.9972
 
              Baa    -0.0000    -0.000    -0.000    -0.000  0.3916  0.7688  0.5056
    28 H(1)   Bbb    -0.0000    -0.000    -0.000    -0.000  0.8239 -0.0483 -0.5647
              Bcc     0.0000     0.000     0.000     0.000  0.4097 -0.6377  0.6523
 
              Baa    -0.0000     0.000     0.000     0.000  0.0754  0.9968  0.0262
    29 O(17)  Bbb     0.0000    -0.000    -0.000    -0.000  0.9961 -0.0741 -0.0480
              Bcc     0.0000    -0.000    -0.000    -0.000  0.0459 -0.0297  0.9985
 
              Baa    -0.0000    -0.000    -0.000    -0.000  0.4147  0.9018 -0.1215
    30 C(13)  Bbb    -0.0000    -0.000    -0.000    -0.000  0.8302 -0.3203  0.4562
              Bcc     0.0000     0.000     0.000     0.000 -0.3725  0.2901  0.8815
 
              Baa    -0.0000    -0.000    -0.000    -0.000  0.0239  0.9983  0.0536
    31 H(1)   Bbb    -0.0000    -0.000    -0.000    -0.000  0.9993 -0.0254  0.0268
              Bcc     0.0000     0.000     0.000     0.000 -0.0282 -0.0529  0.9982
 
              Baa    -0.0000    -0.000    -0.000    -0.000  0.0406  0.6016  0.7978
    32 H(1)   Bbb    -0.0000    -0.000    -0.000    -0.000  0.8714  0.3694 -0.3228
              Bcc     0.0000     0.000     0.000     0.000 -0.4889  0.7083 -0.5092
 
              Baa    -0.0000    -0.000    -0.000    -0.000  0.8571 -0.4995  0.1262
    33 C(13)  Bbb    -0.0000    -0.000    -0.000    -0.000  0.5068  0.8615 -0.0315
              Bcc     0.0000     0.000     0.000     0.000 -0.0930  0.0909  0.9915
 
              Baa    -0.0000    -0.000    -0.000    -0.000  0.2289  0.9356  0.2688
    34 H(1)   Bbb     0.0000     0.000     0.000     0.000  0.8696 -0.0724 -0.4884
              Bcc     0.0000     0.000     0.000     0.000  0.4375 -0.3455  0.8302
 
              Baa    -0.0000    -0.000    -0.000    -0.000 -0.6328 -0.1247  0.7642
    35 H(1)   Bbb     0.0000     0.000     0.000     0.000  0.6895 -0.5399  0.4829
              Bcc     0.0000     0.000     0.000     0.000  0.3523  0.8325  0.4276
 
              Baa    -0.0000     0.000     0.000     0.000  0.4188  0.9081  0.0013
    36 O(17)  Bbb     0.0000    -0.000    -0.000    -0.000  0.9081 -0.4188  0.0069
              Bcc     0.0000    -0.000    -0.000    -0.000 -0.0068  0.0017  1.0000
 
              Baa    -0.0000    -0.000    -0.000    -0.000  0.8211 -0.1461 -0.5518
    37 C(13)  Bbb     0.0000     0.000     0.000     0.000  0.5646  0.3497  0.7476
              Bcc     0.0000     0.000     0.000     0.000 -0.0838  0.9254 -0.3696
 
              Baa    -0.0000    -0.000    -0.000    -0.000 -0.3538 -0.5018  0.7893
    38 H(1)   Bbb    -0.0000    -0.000    -0.000    -0.000  0.7751  0.3150  0.5477
              Bcc     0.0000     0.000     0.000     0.000 -0.5235  0.8056  0.2775
 
              Baa    -0.0000    -0.000    -0.000    -0.000 -0.5148  0.0454  0.8561
    39 H(1)   Bbb    -0.0000    -0.000    -0.000    -0.000  0.7637  0.4782  0.4338
              Bcc     0.0000     0.000     0.000     0.000 -0.3897  0.8771 -0.2808
 
              Baa    -0.0000    -0.000    -0.000    -0.000  0.8613 -0.3810 -0.3361
    40 H(1)   Bbb    -0.0000    -0.000    -0.000    -0.000  0.2463 -0.2655  0.9321
              Bcc     0.0000     0.000     0.000     0.000  0.4444  0.8856  0.1348
 

 ---------------------------------------------------------------------------------

 No NMR shielding tensors so no spin-rotation constants.
 Leave Link  601 at Fri Jan 31 17:19:30 2025, MaxMem= 13421772800 cpu:              19.9 elap:               0.4
 (Enter /gpfs/fs1/soft/improv/software/custom-built/gaussian/g16/l9999.exe)
 Unable to Open any file for archive entry.
 1\1\GINC-I148\SP\UB3LYP\Gen\C17H19N1O2S1\HHARB\31-Jan-2025\0\\#p ub3ly
 p scf=(novaracc,maxcycles=1000,fermi,xqc) empiricaldispersion=gd3 geom
 =allcheck guess=read chkbasis scrf=(cpcm,solvent=acetonitrile)\\title\
 \0,1\C,-3.559715881,-0.1488793044,-0.3012771514\C,-3.3625996169,-1.196
 0859648,0.5923744371\C,-2.0977248019,-1.398007157,1.1391020397\C,-1.05
 22975826,-0.5327843635,0.8290210495\C,-1.2429483097,0.5353164017,-0.06
 54343165\C,-2.5068535216,0.695973582,-0.6446672572\N,-0.1599073905,1.3
 945082855,-0.3562821153\C,1.1039316457,0.8089625947,-0.5976897485\C,1.
 9376505808,1.2277563897,-1.6411217311\C,3.186677693,0.6418142036,-1.83
 16905563\C,3.6139326673,-0.3952898109,-1.0091722204\C,2.7806465599,-0.
 8445645829,0.0122626256\C,1.5477225642,-0.2362913229,0.2310479408\H,-4
 .5332682371,0.0077156883,-0.7532841962\H,-4.1787921398,-1.8596786699,0
 .8545826537\H,-1.9169433258,-2.2208614152,1.8223889435\H,-2.6709490434
 ,1.4790290397,-1.374655949\H,1.6163832634,2.0199039175,-2.3058280909\H
 ,3.8195674421,0.9957052874,-2.6383946789\H,4.5829897748,-0.8570597367,
 -1.1608433331\H,3.0886030239,-1.660631307,0.657104613\S,0.5336750734,-
 0.7244987518,1.605123388\C,-0.4246777088,2.7425536523,-0.8374426717\H,
 -0.3571523371,2.8341403115,-1.9303933507\H,-1.4451963692,3.0074753969,
 -0.5616289142\C,0.4999201762,3.7697806872,-0.1825455999\H,0.3493607573
 ,3.7489050146,0.9095245526\H,1.5576883144,3.5346738494,-0.3706328383\O
 ,0.1579925496,5.0212759864,-0.7313999208\C,0.9406314135,6.0846759075,-
 0.2357222909\H,0.7660117459,6.2290275256,0.8441901249\H,2.0143831537,5
 .8823112032,-0.3794425482\C,0.5707583572,7.3504968748,-0.9799056358\H,
 -0.5264199602,7.4630986119,-0.9782325303\H,0.9976459731,8.2214705545,-
 0.4520316392\O,1.068754397,7.2662431547,-2.2950303856\C,0.7108415925,8
 .3722469004,-3.0879613116\H,1.0984054271,9.3184617565,-2.6747646583\H,
 1.1443302641,8.218457386,-4.079403476\H,-0.3824765942,8.4682473635,-3.
 1897694621\\Version=ES64L-G16RevC.02\State=1-A\HF=-1262.7178616\S2=0.\
 S2-1=0.\S2A=0.\RMSD=1.487e-09\Dipole=-0.2019038,1.0423733,-0.39707\Qua
 drupole=2.2555595,4.7354209,-6.9909804,0.2556965,-0.3922006,0.4616093\
 PG=C01 [X(C17H19N1O2S1)]\\@
 The archive entry for this job was punched.


 IT IS BY LOGIC THAT WE PROVE, BUT BY INTUITION THAT WE DISCOVER.
     -- J.H.POINCARE (1854-1912)
 Job cpu time:       0 days  1 hours  6 minutes  4.8 seconds.
 Elapsed time:       0 days  0 hours  0 minutes 41.4 seconds.
 File lengths (MBytes):  RWF=    446 Int=      0 D2E=      0 Chk=     80 Scr=      1
 Normal termination of Gaussian 16 at Fri Jan 31 17:19:30 2025.
