      -----------------------------------------------------------      
     |                   =====================                   |     
     |                           x T B                           |     
     |                   =====================                   |     
     |                         S. Grimme                         |     
     |          Mulliken Center for Theoretical Chemistry        |     
     |                    University of Bonn                     |     
      -----------------------------------------------------------      

   * xtb version 6.6.0 (conda-forge) compiled by 'runner@Mac-1676020848589.local' on 2023-02-10

   xtb is free software: you can redistribute it and/or modify it under
   the terms of the GNU Lesser General Public License as published by
   the Free Software Foundation, either version 3 of the License, or
   (at your option) any later version.
   
   xtb is distributed in the hope that it will be useful,
   but WITHOUT ANY WARRANTY; without even the implied warranty of
   MERCHANTABILITY or FITNESS FOR A PARTICULAR PURPOSE.  See the
   GNU Lesser General Public License for more details.
   
   Cite this work as:
   * C. Bannwarth, E. Caldeweyher, S. Ehlert, A. Hansen, P. Pracht,
     J. Seibert, S. Spicher, S. Grimme, WIREs Comput. Mol. Sci., 2020, 11,
     e01493. DOI: 10.1002/wcms.1493
   
   for GFN2-xTB:
   * C. Bannwarth, S. Ehlert and S. Grimme., J. Chem. Theory Comput., 2019,
     15, 1652-1671. DOI: 10.1021/acs.jctc.8b01176
   for GFN1-xTB:
   * S. Grimme, C. Bannwarth, P. Shushkov, J. Chem. Theory Comput., 2017,
     13, 1989-2009. DOI: 10.1021/acs.jctc.7b00118
   for GFN0-xTB:
   * P. Pracht, E. Caldeweyher, S. Ehlert, S. Grimme, ChemRxiv, 2019, preprint.
     DOI: 10.26434/chemrxiv.8326202.v1
   for GFN-FF:
   * S. Spicher and S. Grimme, Angew. Chem. Int. Ed., 2020, 59, 15665-15673.
     DOI: 10.1002/anie.202004239
   
   for ALPB and GBSA implicit solvation:
   * S. Ehlert, M. Stahn, S. Spicher, S. Grimme, J. Chem. Theory Comput.,
     2021, 17, 4250-4261. DOI: 10.1021/acs.jctc.1c00471
   
   for DFT-D4:
   * E. Caldeweyher, C. Bannwarth and S. Grimme, J. Chem. Phys., 2017,
     147, 034112. DOI: 10.1063/1.4993215
   * E. Caldeweyher, S. Ehlert, A. Hansen, H. Neugebauer, S. Spicher,
     C. Bannwarth and S. Grimme, J. Chem. Phys., 2019, 150, 154122.
     DOI: 10.1063/1.5090222
   * E. Caldeweyher, J.-M. Mewes, S. Ehlert and S. Grimme, Phys. Chem. Chem. Phys.
     2020, 22, 8499-8512. DOI: 10.1039/D0CP00502A
   
   for sTDA-xTB:
   * S. Grimme and C. Bannwarth, J. Chem. Phys., 2016, 145, 054103.
     DOI: 10.1063/1.4959605
   
   in the mass-spec context:
   * V. Asgeirsson, C. Bauer and S. Grimme, Chem. Sci., 2017, 8, 4879.
     DOI: 10.1039/c7sc00601b
   * J. Koopman and S. Grimme, ACS Omega 2019, 4, 12, 15120-15133.
     DOI: 10.1021/acsomega.9b02011
   
   for metadynamics refer to:
   * S. Grimme, J. Chem. Theory Comput., 2019, 155, 2847-2862
     DOI: 10.1021/acs.jctc.9b00143
   
   for SPH calculations refer to:
   * S. Spicher and S. Grimme, J. Chem. Theory Comput., 2021, 17, 1701-1714
     DOI: 10.1021/acs.jctc.0c01306
   
   with help from (in alphabetical order)
   P. Atkinson, C. Bannwarth, F. Bohle, G. Brandenburg, E. Caldeweyher
   M. Checinski, S. Dohm, S. Ehlert, S. Ehrlich, I. Gerasimov, C. Hölzer
   A. Katbashev, J. Koopman, C. Lavigne, S. Lehtola, F. März, M. Müller,
   F. Musil, H. Neugebauer, J. Pisarek, C. Plett, P. Pracht, F. Pultar,
   J. Seibert, P. Shushkov, S. Spicher, M. Stahn, M. Steiner, T. Strunk,
   J. Stückrath, T. Rose, and J. Unsleber
   
 * started run on 2025/02/06 at 15:22:58.585     

           -------------------------------------------------
          |                Calculation Setup                |
           -------------------------------------------------

          program call               : xtb coord --gfn2 --md
          coordinate file            : coord
          omp threads                :                     1

   ID    Z sym.   atoms
    1    6 c      1-6, 8-13, 23, 26, 30, 33, 37, 41, 42, 47, 48, 53, 54, 59,
                  60, 65, 66, 71, 72, 77, 78, 83, 84, 89, 90, 95, 96, 101,
                  102, 107, 108, 113, 114, 119, 120, 125, 126, 131, 132, 137,
                  138, 143, 144, 149, 150, 155, 156
    2    7 n      7, 43, 49, 55, 61, 67, 73, 79, 85, 91, 97, 103, 109, 115,
                  121, 127, 133, 139, 145, 151, 157
    3    1 h      14-21, 24, 25, 27, 28, 31, 32, 34, 35, 38-40, 44-46, 50-52,
                  56-58, 62-64, 68-70, 74-76, 80-82, 86-88, 92-94, 98-100,
                  104-106, 110-112, 116-118, 122-124, 128-130, 134-136,
                  140-142, 146-148, 152-154, 158-160
    4   16 s      22
    5    8 o      29, 36

molecular fragmentation (1/2 indicates fragments):
111111111111111111111111111111111111111122222222222222222222222222222222
222222222222222222222222222222222222222222222222222222222222222222222222
2222222222222222
# atoms in fragment 1/2:    40   120
 fragment masses (1/2) :      301.40      821.04
CMA distance (Bohr)    :   1.708
constraining FC (au)   :  0.0500
########################################################################
[WARNING] Please study the warnings concerning your input carefully
-1- set_rdsetbl: Set-blocks will become obsolete in xtb 6.0 and newer
########################################################################

           -------------------------------------------------
          |                 G F N 2 - x T B                 |
           -------------------------------------------------

        Reference                      10.1021/acs.jctc.8b01176
      * Hamiltonian:
        H0-scaling (s, p, d)           1.850000    2.230000    2.230000
        zeta-weighting                 0.500000
      * Dispersion:
        s8                             2.700000
        a1                             0.520000
        a2                             5.000000
        s9                             5.000000
      * Repulsion:
        kExp                           1.500000    1.000000
        rExp                           1.000000
      * Coulomb:
        alpha                          2.000000
        third order                    shell-resolved
        anisotropic                    true
        a3                             3.000000
        a5                             4.000000
        cn-shift                       1.200000
        cn-exp                         4.000000
        max-rad                        5.000000


          ...................................................
          :                      SETUP                      :
          :.................................................:
          :  # basis functions                 409          :
          :  # atomic orbitals                 408          :
          :  # shells                          242          :
          :  # electrons                       430          :
          :  max. iterations                   250          :
          :  Hamiltonian                  GFN2-xTB          :
          :  restarted?                      false          :
          :  GBSA solvation                  false          :
          :  PC potential                    false          :
          :  electronic temp.          300.0000000     K    :
          :  accuracy                    1.0000000          :
          :  -> integral cutoff          0.2500000E+02      :
          :  -> integral neglect         0.1000000E-07      :
          :  -> SCF convergence          0.1000000E-05 Eh   :
          :  -> wf. convergence          0.1000000E-03 e    :
          :  Broyden damping             0.4000000          :
          ...................................................

 iter      E             dE          RMSdq      gap      omega  full diag
   1   -238.5164879 -0.238516E+03  0.541E+00    2.75       0.0  T
   2   -238.6688302 -0.152342E+00  0.335E+00    3.00       1.0  T
   3   -238.4017227  0.267107E+00  0.196E+00    2.85       1.0  T
   4   -238.8083645 -0.406642E+00  0.465E-01    2.84       1.0  T
   5   -238.8192231 -0.108585E-01  0.177E-01    2.89       1.0  T
   6   -238.8200405 -0.817463E-03  0.844E-02    2.89       1.0  T
   7   -238.8207137 -0.673147E-03  0.283E-02    2.89       1.0  T
   8   -238.8207260 -0.122875E-04  0.162E-02    2.89       1.0  T
   9   -238.8207441 -0.181313E-04  0.545E-03    2.89       1.4  T
  10   -238.8207466 -0.247555E-05  0.234E-03    2.89       3.4  T
  11   -238.8207470 -0.415679E-06  0.122E-03    2.89       6.5  T
  12   -238.8207470 -0.462493E-07  0.547E-04    2.89      14.5  T
  13   -238.8207470 -0.180735E-07  0.210E-04    2.89      37.6  T

   *** convergence criteria satisfied after 13 iterations ***

         #    Occupation            Energy/Eh            Energy/eV
      -------------------------------------------------------------
         1        2.0000           -0.7141978             -19.4343
       ...           ...                  ...                  ...
       209        2.0000           -0.4109983             -11.1838
       210        2.0000           -0.4029627             -10.9652
       211        2.0000           -0.3997739             -10.8784
       212        2.0000           -0.3948073             -10.7433
       213        2.0000           -0.3936924             -10.7129
       214        2.0000           -0.3647542              -9.9255
       215        2.0000           -0.3294854              -8.9658 (HOMO)
       216                         -0.2233916              -6.0788 (LUMO)
       217                         -0.2155780              -5.8662
       218                         -0.2144148              -5.8345
       219                         -0.2121546              -5.7730
       220                         -0.2116921              -5.7604
       ...                                ...                  ...
       408                          1.1613103              31.6009
      -------------------------------------------------------------
                  HL-Gap            0.1060939 Eh            2.8870 eV
             Fermi-level           -0.2764385 Eh           -7.5223 eV

 SCC (total)                   0 d,  0 h,  0 min,  1.370 sec
 SCC setup                      ...        0 min,  0.003 sec (  0.188%)
 Dispersion                     ...        0 min,  0.005 sec (  0.343%)
 classical contributions        ...        0 min,  0.002 sec (  0.132%)
 integral evaluation            ...        0 min,  0.043 sec (  3.111%)
 iterations                     ...        0 min,  0.989 sec ( 72.153%)
 molecular gradient             ...        0 min,  0.322 sec ( 23.516%)
 printout                       ...        0 min,  0.008 sec (  0.554%)

         :::::::::::::::::::::::::::::::::::::::::::::::::::::
         ::                     SUMMARY                     ::
         :::::::::::::::::::::::::::::::::::::::::::::::::::::
         :: total energy            -234.377217501470 Eh    ::
         :: gradient norm              0.009901187222 Eh/a0 ::
         :: HOMO-LUMO gap              2.886961119997 eV    ::
         ::.................................................::
         :: SCC energy              -238.820747039895 Eh    ::
         :: -> isotropic ES            0.261535314888 Eh    ::
         :: -> anisotropic ES         -0.054335761030 Eh    ::
         :: -> anisotropic XC          0.375512401598 Eh    ::
         :: -> dispersion             -0.196675646949 Eh    ::
         :: repulsion energy           4.427133881119 Eh    ::
         :: add. restraining           0.000000000000 Eh    ::
         :: total charge              -0.000000000000 e     ::
         :::::::::::::::::::::::::::::::::::::::::::::::::::::

           -------------------------------------------------
          |                Property Printout                |
           -------------------------------------------------

    * Orbital Energies and Occupations

         #    Occupation            Energy/Eh            Energy/eV
      -------------------------------------------------------------
         1        2.0000           -0.7141978             -19.4343
       ...           ...                  ...                  ...
       203        2.0000           -0.4234917             -11.5238
       204        2.0000           -0.4214879             -11.4693
       205        2.0000           -0.4164970             -11.3335
       206        2.0000           -0.4154318             -11.3045
       207        2.0000           -0.4144217             -11.2770
       208        2.0000           -0.4133741             -11.2485
       209        2.0000           -0.4109983             -11.1838
       210        2.0000           -0.4029627             -10.9652
       211        2.0000           -0.3997739             -10.8784
       212        2.0000           -0.3948073             -10.7433
       213        2.0000           -0.3936924             -10.7129
       214        2.0000           -0.3647542              -9.9255
       215        2.0000           -0.3294854              -8.9658 (HOMO)
       216                         -0.2233916              -6.0788 (LUMO)
       217                         -0.2155780              -5.8662
       218                         -0.2144148              -5.8345
       219                         -0.2121546              -5.7730
       220                         -0.2116921              -5.7604
       221                         -0.2105592              -5.7296
       222                         -0.2101507              -5.7185
       223                         -0.2092502              -5.6940
       224                         -0.2091662              -5.6917
       225                         -0.2086868              -5.6787
       226                         -0.2082310              -5.6663
       ...                                ...                  ...
       408                          1.1613103              31.6009
      -------------------------------------------------------------
                  HL-Gap            0.1060939 Eh            2.8870 eV
             Fermi-level           -0.2764385 Eh           -7.5223 eV

     #   Z          covCN         q      C6AA      α(0)
     1   6 c        2.920    -0.036    28.903     8.816
     2   6 c        2.920    -0.041    29.007     8.832
     3   6 c        2.970    -0.034    28.842     8.809
     4   6 c        2.975     0.042    27.059     8.533
     5   6 c        2.963     0.058    26.686     8.473
     6   6 c        2.925    -0.066    29.644     8.929
     7   7 n        2.744    -0.092    23.037     7.129
     8   6 c        2.962     0.062    26.605     8.460
     9   6 c        2.926    -0.058    29.451     8.900
    10   6 c        2.918    -0.038    28.936     8.821
    11   6 c        2.921    -0.043    29.058     8.840
    12   6 c        2.965    -0.044    29.087     8.846
    13   6 c        2.974     0.040    27.107     8.540
    14   1 h        0.926     0.030     2.581     2.512
    15   1 h        0.926     0.027     2.624     2.533
    16   1 h        0.926     0.038     2.472     2.459
    17   1 h        0.926     0.052     2.298     2.370
    18   1 h        0.926     0.045     2.385     2.415
    19   1 h        0.926     0.041     2.437     2.441
    20   1 h        0.926     0.025     2.654     2.547
    21   1 h        0.926     0.051     2.312     2.378
    22  16 s        2.130    -0.153   147.502    20.441
    23   6 c        3.745    -0.005    20.730     6.495
    24   1 h        0.924     0.065     2.136     2.286
    25   1 h        0.924     0.061     2.185     2.312
    26   6 c        3.703     0.080    19.394     6.296
    27   1 h        0.924     0.026     2.648     2.545
    28   1 h        0.924     0.044     2.394     2.420
    29   8 o        1.701    -0.328    19.484     5.960
    30   6 c        3.703     0.085    19.317     6.284
    31   1 h        0.923     0.031     2.570     2.507
    32   1 h        0.923     0.034     2.531     2.488
    33   6 c        3.707     0.082    19.351     6.288
    34   1 h        0.923     0.040     2.445     2.445
    35   1 h        0.924     0.039     2.466     2.456
    36   8 o        1.700    -0.329    19.500     5.962
    37   6 c        3.656     0.039    20.207     6.453
    38   1 h        0.924     0.043     2.413     2.429
    39   1 h        0.925     0.057     2.238     2.339
    40   1 h        0.924     0.040     2.453     2.449
    41   6 c        3.754    -0.120    22.863     6.818
    42   6 c        1.890     0.131    27.911     8.533
    43   7 n        0.911    -0.294    27.582     7.596
    44   1 h        0.925     0.076     2.026     2.226
    45   1 h        0.924     0.108     1.716     2.048
    46   1 h        0.925     0.098     1.802     2.099
    47   6 c        3.753    -0.124    22.945     6.831
    48   6 c        1.890     0.133    27.861     8.525
    49   7 n        0.911    -0.298    27.683     7.610
    50   1 h        0.925     0.079     1.993     2.208
    51   1 h        0.924     0.105     1.736     2.060
    52   1 h        0.924     0.107     1.722     2.052
    53   6 c        3.754    -0.125    22.950     6.831
    54   6 c        1.890     0.135    27.808     8.517
    55   7 n        0.911    -0.298    27.672     7.608
    56   1 h        0.925     0.090     1.877     2.142
    57   1 h        0.925     0.094     1.841     2.122
    58   1 h        0.924     0.107     1.722     2.052
    59   6 c        3.754    -0.115    22.755     6.802
    60   6 c        1.890     0.132    27.883     8.528
    61   7 n        0.911    -0.283    27.293     7.556
    62   1 h        0.925     0.082     1.955     2.187
    63   1 h        0.925     0.085     1.925     2.170
    64   1 h        0.925     0.100     1.789     2.092
    65   6 c        3.754    -0.122    22.888     6.822
    66   6 c        1.890     0.134    27.835     8.521
    67   7 n        0.911    -0.281    27.251     7.550
    68   1 h        0.925     0.101     1.780     2.087
    69   1 h        0.925     0.098     1.800     2.098
    70   1 h        0.925     0.077     2.006     2.215
    71   6 c        3.754    -0.123    22.914     6.826
    72   6 c        1.890     0.122    28.118     8.564
    73   7 n        0.911    -0.283    27.296     7.556
    74   1 h        0.925     0.102     1.771     2.081
    75   1 h        0.925     0.097     1.812     2.105
    76   1 h        0.925     0.080     1.981     2.201
    77   6 c        3.753    -0.119    22.847     6.816
    78   6 c        1.890     0.125    28.044     8.553
    79   7 n        0.911    -0.271    27.007     7.516
    80   1 h        0.925     0.077     2.009     2.216
    81   1 h        0.924     0.112     1.680     2.027
    82   1 h        0.925     0.073     2.056     2.242
    83   6 c        3.753    -0.118    22.819     6.812
    84   6 c        1.890     0.135    27.819     8.518
    85   7 n        0.911    -0.288    27.437     7.576
    86   1 h        0.925     0.084     1.942     2.179
    87   1 h        0.924     0.091     1.867     2.137
    88   1 h        0.924     0.097     1.810     2.104
    89   6 c        3.754    -0.113    22.712     6.796
    90   6 c        1.890     0.126    28.023     8.550
    91   7 n        0.911    -0.267    26.910     7.503
    92   1 h        0.925     0.101     1.774     2.083
    93   1 h        0.925     0.075     2.026     2.226
    94   1 h        0.925     0.076     2.021     2.223
    95   6 c        3.754    -0.128    23.011     6.840
    96   6 c        1.890     0.133    27.870     8.526
    97   7 n        0.911    -0.298    27.669     7.608
    98   1 h        0.924     0.125     1.573     1.961
    99   1 h        0.925     0.075     2.034     2.230
   100   1 h        0.925     0.089     1.894     2.152
   101   6 c        3.754    -0.122    22.893     6.823
   102   6 c        1.890     0.131    27.917     8.534
   103   7 n        0.911    -0.282    27.270     7.553
   104   1 h        0.925     0.078     2.002     2.213
   105   1 h        0.925     0.077     2.014     2.220
   106   1 h        0.924     0.118     1.626     1.994
   107   6 c        3.754    -0.127    22.999     6.839
   108   6 c        1.890     0.132    27.885     8.529
   109   7 n        0.911    -0.294    27.586     7.596
   110   1 h        0.924     0.110     1.699     2.038
   111   1 h        0.925     0.105     1.740     2.063
   112   1 h        0.925     0.076     2.018     2.222
   113   6 c        3.753    -0.129    23.029     6.843
   114   6 c        1.890     0.130    27.922     8.534
   115   7 n        0.911    -0.285    27.357     7.565
   116   1 h        0.924     0.107     1.719     2.050
   117   1 h        0.925     0.072     2.060     2.244
   118   1 h        0.924     0.099     1.794     2.095
   119   6 c        3.754    -0.120    22.857     6.817
   120   6 c        1.890     0.126    28.021     8.549
   121   7 n        0.911    -0.286    27.372     7.567
   122   1 h        0.925     0.102     1.764     2.077
   123   1 h        0.925     0.101     1.779     2.086
   124   1 h        0.925     0.070     2.084     2.258
   125   6 c        3.754    -0.120    22.854     6.817
   126   6 c        1.890     0.145    27.592     8.484
   127   7 n        0.911    -0.298    27.682     7.610
   128   1 h        0.925     0.091     1.867     2.137
   129   1 h        0.925     0.097     1.816     2.107
   130   1 h        0.925     0.095     1.827     2.114
   131   6 c        3.753    -0.124    22.928     6.828
   132   6 c        1.890     0.136    27.800     8.516
   133   7 n        0.911    -0.294    27.573     7.595
   134   1 h        0.924     0.126     1.564     1.956
   135   1 h        0.925     0.077     2.012     2.218
   136   1 h        0.925     0.083     1.944     2.181
   137   6 c        3.753    -0.117    22.805     6.810
   138   6 c        1.890     0.126    28.034     8.551
   139   7 n        0.911    -0.283    27.304     7.557
   140   1 h        0.925     0.084     1.943     2.180
   141   1 h        0.924     0.107     1.722     2.052
   142   1 h        0.925     0.078     2.002     2.212
   143   6 c        3.754    -0.120    22.858     6.817
   144   6 c        1.890     0.125    28.040     8.552
   145   7 n        0.911    -0.275    27.097     7.529
   146   1 h        0.925     0.083     1.951     2.184
   147   1 h        0.924     0.108     1.713     2.046
   148   1 h        0.925     0.073     2.055     2.242
   149   6 c        3.753    -0.115    22.751     6.802
   150   6 c        1.890     0.127    28.012     8.548
   151   7 n        0.911    -0.274    27.076     7.526
   152   1 h        0.925     0.104     1.747     2.067
   153   1 h        0.924     0.076     2.026     2.226
   154   1 h        0.925     0.080     1.984     2.203
   155   6 c        3.753    -0.125    22.961     6.833
   156   6 c        1.890     0.133    27.866     8.526
   157   7 n        0.911    -0.299    27.692     7.611
   158   1 h        0.924     0.101     1.778     2.086
   159   1 h        0.924     0.110     1.697     2.037
   160   1 h        0.925     0.078     2.003     2.213

 Mol. C6AA /au·bohr⁶  :     279307.367543
 Mol. C8AA /au·bohr⁸  :    6594664.092470
 Mol. α(0) /au        :        808.948663


Wiberg/Mayer (AO) data.
largest (>0.10) Wiberg bond orders for each atom

 ---------------------------------------------------------------------------
     #   Z sym  total        # sym  WBO       # sym  WBO       # sym  WBO
 ---------------------------------------------------------------------------
     1   6 c    3.990 --     6 c    1.439     2 c    1.433    14 h    0.971
     2   6 c    3.984 --     1 c    1.433     3 c    1.425    15 h    0.970
     3   6 c    3.988 --     2 c    1.425     4 c    1.420    16 h    0.968
     4   6 c    3.963 --     3 c    1.420     5 c    1.330    22 s    1.011
     5   6 c    3.969 --     6 c    1.365     4 c    1.330     7 n    1.082
     6   6 c    3.982 --     1 c    1.439     5 c    1.365    17 h    0.959
     7   7 n    3.441 --     5 c    1.082     8 c    1.076    23 c    0.995
     8   6 c    3.970 --     9 c    1.362    13 c    1.332     7 n    1.076
     9   6 c    3.983 --    10 c    1.440     8 c    1.362    18 h    0.962
    10   6 c    3.989 --     9 c    1.440    11 c    1.432    19 h    0.967
    11   6 c    3.984 --    10 c    1.432    12 c    1.424    20 h    0.967
    12   6 c    3.987 --    11 c    1.424    13 c    1.418    21 h    0.961
    13   6 c    3.962 --    12 c    1.418     8 c    1.332    22 s    1.008
    14   1 h    0.998 --     1 c    0.971
    15   1 h    0.999 --     2 c    0.970
    16   1 h    0.998 --     3 c    0.968
    17   1 h    0.997 --     6 c    0.959
    18   1 h    0.998 --     9 c    0.962
    19   1 h    0.997 --    10 c    0.967
    20   1 h    0.999 --    11 c    0.967
    21   1 h    0.997 --    12 c    0.961
    22  16 s    2.303 --     4 c    1.011    13 c    1.008
    23   6 c    3.976 --     7 n    0.995    26 c    0.993    25 h    0.967
                            24 h    0.955
    24   1 h    0.993 --    23 c    0.955
    25   1 h    0.995 --    23 c    0.967
    26   6 c    3.945 --    23 c    0.993    29 o    0.971    27 h    0.965
                            28 h    0.956
    27   1 h    0.999 --    26 c    0.965
    28   1 h    0.998 --    26 c    0.956
    29   8 o    2.064 --    30 c    0.986    26 c    0.971
    30   6 c    3.956 --    33 c    0.995    29 o    0.986    32 h    0.966
                            31 h    0.965
    31   1 h    0.999 --    30 c    0.965
    32   1 h    0.999 --    30 c    0.966
    33   6 c    3.951 --    30 c    0.995    36 o    0.979    34 h    0.967
                            35 h    0.965
    34   1 h    0.998 --    33 c    0.967
    35   1 h    0.998 --    33 c    0.965
    36   8 o    2.074 --    37 c    0.986    33 c    0.979
    37   6 c    3.944 --    36 o    0.986    39 h    0.980    40 h    0.978
                            38 h    0.976
    38   1 h    0.998 --    37 c    0.976
    39   1 h    0.996 --    37 c    0.980
    40   1 h    0.998 --    37 c    0.978
    41   6 c    3.990 --    42 c    1.093    44 h    0.948    46 h    0.932
                            45 h    0.930
    42   6 c    3.939 --    43 n    2.800    41 c    1.093
    43   7 n    2.990 --    42 c    2.800
    44   1 h    0.994 --    41 c    0.948
    45   1 h    0.988 --    41 c    0.930
    46   1 h    0.990 --    41 c    0.932
    47   6 c    3.988 --    48 c    1.093    50 h    0.947    51 h    0.930
                            52 h    0.929
    48   6 c    3.938 --    49 n    2.794    47 c    1.093
    49   7 n    2.996 --    48 c    2.794
    50   1 h    0.994 --    47 c    0.947
    51   1 h    0.989 --    47 c    0.930
    52   1 h    0.988 --    47 c    0.929
    53   6 c    3.989 --    54 c    1.093    56 h    0.944    57 h    0.940
                            58 h    0.931
    54   6 c    3.938 --    55 n    2.790    53 c    1.093
    55   7 n    2.994 --    54 c    2.790
    56   1 h    0.992 --    53 c    0.944
    57   1 h    0.991 --    53 c    0.940
    58   1 h    0.988 --    53 c    0.931
    59   6 c    3.992 --    60 c    1.084    62 h    0.949    63 h    0.946
                            64 h    0.940
    60   6 c    3.940 --    61 n    2.810    59 c    1.084
    61   7 n    2.996 --    60 c    2.810
    62   1 h    0.993 --    59 c    0.949
    63   1 h    0.993 --    59 c    0.946
    64   1 h    0.990 --    59 c    0.940
    65   6 c    3.990 --    66 c    1.088    70 h    0.950    69 h    0.938
                            68 h    0.935
    66   6 c    3.940 --    67 n    2.811    65 c    1.088
    67   7 n    3.010 --    66 c    2.811
    68   1 h    0.990 --    65 c    0.935
    69   1 h    0.990 --    65 c    0.938
    70   1 h    0.994 --    65 c    0.950
    71   6 c    3.990 --    72 c    1.088    76 h    0.948    75 h    0.934
                            74 h    0.932
    72   6 c    3.942 --    73 n    2.816    71 c    1.088
    73   7 n    2.989 --    72 c    2.816
    74   1 h    0.990 --    71 c    0.932
    75   1 h    0.991 --    71 c    0.934
    76   1 h    0.994 --    71 c    0.948
    77   6 c    3.991 --    78 c    1.084    82 h    0.951    80 h    0.950
                            81 h    0.922
    78   6 c    3.943 --    79 n    2.818    77 c    1.084
    79   7 n    3.004 --    78 c    2.818
    80   1 h    0.994 --    77 c    0.950
    81   1 h    0.987 --    77 c    0.922
    82   1 h    0.995 --    77 c    0.951
    83   6 c    3.992 --    84 c    1.092    86 h    0.945    87 h    0.938
                            88 h    0.933
    84   6 c    3.940 --    85 n    2.798    83 c    1.092
    85   7 n    2.999 --    84 c    2.798
    86   1 h    0.993 --    83 c    0.945
    87   1 h    0.992 --    83 c    0.938
    88   1 h    0.990 --    83 c    0.933
    89   6 c    3.993 --    90 c    1.078    93 h    0.952    94 h    0.952
                            92 h    0.938
    90   6 c    3.943 --    91 n    2.829    89 c    1.078
    91   7 n    2.998 --    90 c    2.829
    92   1 h    0.990 --    89 c    0.938
    93   1 h    0.994 --    89 c    0.952
    94   1 h    0.994 --    89 c    0.952
    95   6 c    3.987 --    96 c    1.094    99 h    0.949   100 h    0.941
                            98 h    0.914
    96   6 c    3.939 --    97 n    2.797    95 c    1.094
    97   7 n    2.997 --    96 c    2.797
    98   1 h    0.984 --    95 c    0.914
    99   1 h    0.994 --    95 c    0.949
   100   1 h    0.992 --    95 c    0.941
   101   6 c    3.989 --   102 c    1.091   105 h    0.948   104 h    0.948
                           106 h    0.920
   102   6 c    3.941 --   103 n    2.800   101 c    1.091
   103   7 n    3.004 --   102 c    2.800
   104   1 h    0.994 --   101 c    0.948
   105   1 h    0.994 --   101 c    0.948
   106   1 h    0.986 --   101 c    0.920
   107   6 c    3.988 --   108 c    1.095   112 h    0.947   111 h    0.931
                           110 h    0.924
   108   6 c    3.939 --   109 n    2.791   107 c    1.095
   109   7 n    3.001 --   108 c    2.791
   110   1 h    0.988 --   107 c    0.924
   111   1 h    0.989 --   107 c    0.931
   112   1 h    0.994 --   107 c    0.947
   113   6 c    3.989 --   114 c    1.092   117 h    0.950   118 h    0.931
                           116 h    0.922
   114   6 c    3.940 --   115 n    2.802   113 c    1.092
   115   7 n    3.009 --   114 c    2.802
   116   1 h    0.988 --   113 c    0.922
   117   1 h    0.995 --   113 c    0.950
   118   1 h    0.990 --   113 c    0.931
   119   6 c    3.990 --   120 c    1.087   124 h    0.950   123 h    0.937
                           122 h    0.932
   120   6 c    3.941 --   121 n    2.814   119 c    1.087
   121   7 n    2.991 --   120 c    2.814
   122   1 h    0.989 --   119 c    0.932
   123   1 h    0.990 --   119 c    0.937
   124   1 h    0.995 --   119 c    0.950
   125   6 c    3.990 --   126 c    1.096   129 h    0.937   130 h    0.936
                           128 h    0.936
   126   6 c    3.936 --   127 n    2.784   125 c    1.096
   127   7 n    3.002 --   126 c    2.784
   128   1 h    0.992 --   125 c    0.936
   129   1 h    0.990 --   125 c    0.937
   130   1 h    0.991 --   125 c    0.936
   131   6 c    3.987 --   132 c    1.097   135 h    0.947   136 h    0.945
                           134 h    0.912
   132   6 c    3.939 --   133 n    2.788   131 c    1.097
   133   7 n    3.006 --   132 c    2.788
   134   1 h    0.984 --   131 c    0.912
   135   1 h    0.994 --   131 c    0.947
   136   1 h    0.993 --   131 c    0.945
   137   6 c    3.990 --   138 c    1.093   142 h    0.946   140 h    0.939
                           141 h    0.921
   138   6 c    3.942 --   139 n    2.801   137 c    1.093
   139   7 n    2.997 --   138 c    2.801
   140   1 h    0.993 --   137 c    0.939
   141   1 h    0.989 --   137 c    0.921
   142   1 h    0.994 --   137 c    0.946
   143   6 c    3.991 --   144 c    1.083   148 h    0.951   146 h    0.947
                           147 h    0.930
   144   6 c    3.943 --   145 n    2.821   143 c    1.083
   145   7 n    2.995 --   144 c    2.821
   146   1 h    0.993 --   143 c    0.947
   147   1 h    0.988 --   143 c    0.930
   148   1 h    0.995 --   143 c    0.951
   149   6 c    3.992 --   150 c    1.081   153 h    0.951   154 h    0.949
                           152 h    0.937
   150   6 c    3.942 --   151 n    2.824   149 c    1.081
   151   7 n    2.994 --   150 c    2.824
   152   1 h    0.989 --   149 c    0.937
   153   1 h    0.994 --   149 c    0.951
   154   1 h    0.994 --   149 c    0.949
   155   6 c    3.989 --   156 c    1.095   160 h    0.947   158 h    0.935
                           159 h    0.923
   156   6 c    3.939 --   157 n    2.797   155 c    1.095
   157   7 n    2.991 --   156 c    2.797
   158   1 h    0.990 --   155 c    0.935
   159   1 h    0.988 --   155 c    0.923
   160   1 h    0.994 --   155 c    0.947
 ---------------------------------------------------------------------------

Topologies differ in total number of bonds
Writing topology from bond orders to xtbtopo.mol

molecular dipole:
                 x           y           z       tot (Debye)
 q only:       -1.088       0.168       0.378
   full:       -1.341       0.181       0.234       3.490
molecular quadrupole (traceless):
                xx          xy          yy          xz          yz          zz
 q only:       21.029      14.100     -13.096      -1.504     -11.222      -7.933
  q+dip:       28.276      22.878     -15.469      -3.336     -17.799     -12.808
   full:       34.701      17.293     -20.728      -2.511     -16.786     -13.973


           -------------------------------------------------
          | TOTAL ENERGY             -234.377217501470 Eh   |
          | GRADIENT NORM               0.009901187222 Eh/α |
          | HOMO-LUMO GAP               2.886961119997 eV   |
           -------------------------------------------------
           ------------------------------------------------- 
          |                  Meta Dynamics                  |
           ------------------------------------------------- 
 trajectories on xtb.trj or xtb.trj.<n>

 MD time /ps        :    1.00
 dt /fs             :    5.00
 SCC accuracy       :    2.00
 temperature /K     :  300.00
 max steps          :   200
 block length (av.) :  1000
 dumpstep(trj) /fs  :  100.00    20
 dumpstep(coords)/fs:10000.00  2000
 H atoms mass (amu) :     2
 # deg. of freedom  :   338
 SHAKE on. # bonds  :         142  all: T
 Berendsen THERMOSTAT on
 --- metadynamics parameter ---
 kpush  :    0.480
 alpha  :    0.500
 update :     100
         time (ps)    <Epot>      Ekin   <T>   T     Etot
      0    0.00      0.00000   0.3984    0.    0.  -233.97164
est. speed in wall clock h for 100 ps :  5.85
 average properties 
 Epot               :  -233.00761934732711     
 Epot (accurate SCC):  -234.17007619574238     
 Ekin               :  0.19108271314522451     
 Etot               :  -232.81653663418189     
 T                  :   357.03671808517265     
 normal exit of md()

------------------------------------------------------------------------
 * finished run on 2025/02/06 at 15:26:29.588     
------------------------------------------------------------------------
 total:
 * wall-time:     0 d,  0 h,  3 min, 31.003 sec
 *  cpu-time:     0 d,  0 h,  3 min, 30.949 sec
 * ratio c/w:     1.000 speedup
 SCF:
 * wall-time:     0 d,  0 h,  0 min,  1.370 sec
 *  cpu-time:     0 d,  0 h,  0 min,  1.370 sec
 * ratio c/w:     1.000 speedup
 MD:
 * wall-time:     0 d,  0 h,  3 min, 29.577 sec
 *  cpu-time:     0 d,  0 h,  3 min, 29.524 sec
 * ratio c/w:     1.000 speedup

