160
 energy: -234.370018043059 gnorm: 0.009901410458 xtb: 6.6.0 (conda-forge)
c            3.26049206265975       -3.32695899735021        0.11324076252436
c            4.44348724634107       -2.62988136240514        0.27445899707492
c            4.40147073206115       -1.25751633255657        0.44154251842171
c            3.18614411207366       -0.60034875969389        0.45398199574654
c            1.98275124807681       -1.28410213486221        0.27083339378377
c            2.04408229614578       -2.66624741122686        0.09949523368578
n            0.77485062459838       -0.58483267457942        0.24039979310026
c            0.73824250492816        0.64097339843798       -0.43065950705912
c           -0.32972233080455        1.00057038984321       -1.25257140763401
c           -0.37140117861771        2.24096750977791       -1.86407557061213
c            0.66630523688311        3.13922964691553       -1.69290752737495
c            1.75117755883072        2.78830515849744       -0.90841849583942
c            1.78217727976069        1.55519791888082       -0.28446058249760
h            3.28123837908327       -4.39891904273524       -0.01788569752424
h            5.38746233921433       -3.15228149909790        0.27153934741838
h            5.30565594911703       -0.68404968946735        0.57738482653918
h            1.14018658687309       -3.23021832961632       -0.06517428778445
h           -1.15271544255903        0.31859491695133       -1.39186172143568
h           -1.22905721634946        2.50351235315296       -2.46505801610480
h            0.63851912455454        4.11227872301571       -2.15808668736158
h            2.56130942309520        3.48280713166827       -0.75377729405987
s            3.16077025250681        1.14304202762264        0.74995575902348
c           -0.45862198175476       -1.29563960308897        0.50542280813022
h           -0.88633983333322       -1.76166088898494       -0.39029719174855
h           -0.22226379389264       -2.08944152714779        1.21509517044873
c           -1.51995897380145       -0.37730601618383        1.12641746043521
h           -1.81197917042490       -0.74627322172818        2.11666578885700
h           -1.12191186326087        0.63767844936047        1.25307538584113
o           -2.65919343387328       -0.34260066060733        0.28661330798466
c           -3.62711816260253        0.58284343066407        0.71563525357766
h           -3.86414723161589        0.42332687631032        1.77646514666169
h           -3.25041462311778        1.61029609327681        0.59675706120672
c           -4.88223042918024        0.37377537733002       -0.12454569066260
h           -4.64312948343939        0.50460649868550       -1.18965254563239
h           -5.25158803295904       -0.64854365804894        0.02652850056032
o           -5.87109933398853        1.30071515796617        0.26998373311920
c           -7.10470380696378        1.06974749855850       -0.37480442318054
h           -7.47585899337010        0.06321920068760       -0.15672897667131
h           -7.80336729932621        1.81062467067044        0.01050130096212
h           -7.00597267012186        1.18212837724890       -1.46043821045405
c            1.33330133685663        0.24119651934964        3.74607263671659
c            0.60688951443214       -0.98240761030271        3.83226153041404
n            0.03256677843701       -1.97146111044486        3.90281694391205
h            1.27535921854896        0.77008771390354        4.69652968872361
h            2.37475813891444        0.01468089424525        3.51494186757560
h            0.90764403369930        0.86438744428225        2.95960524368027
c           -3.19221643632496       -2.14659376469581        4.08584453779640
c           -3.25062848322847       -0.73735716939063        4.29896051388953
n           -3.28219019787304        0.39496569283049        4.47175983553996
h           -3.80572787740345       -2.65406602472047        4.82899507841954
h           -3.55473216379051       -2.38341276172653        3.08388545845383
h           -2.15166505058920       -2.46615599835792        4.17447490965196
c           -1.98229461841677        3.37549595792670        3.87731894302750
c           -1.04271280741965        2.96737323773522        2.88588130207221
n           -0.29079838881067        2.61608214391092        2.09558564514596
h           -1.46649282444385        3.96871083887362        4.63121028187383
h           -2.75355182782736        3.98325181637288        3.40574419230477
h           -2.42434745479903        2.48704397647180        4.33021135454657
c            2.63808911324365       -4.10509749705940        3.41198678075839
c            3.25850755395096       -2.82163626360924        3.50745190491433
n            3.76691058685813       -1.79994287210048        3.59505518716631
h            2.15368057593376       -4.34226577291463        4.35798211027444
h            1.89534564624025       -4.08610093526092        2.61663891951110
h            3.40498265511209       -4.84629337117920        3.18782199782470
c           -6.03900617687520        1.71192568077377        3.50725942091317
c           -6.42826595037806        0.33850418871834        3.48206741062564
n           -6.73204717634404       -0.76479761313612        3.46511717262601
h           -5.09085290973857        1.79026301661038        4.03910352908786
h           -5.91283853260021        2.05557013168597        2.48045908868654
h           -6.79937161811596        2.30443664541290        4.01260122841760
c            2.63373064538974        4.03361610257243        2.60634039452245
c            1.74653625267201        4.82041102976400        3.40298493819577
n            1.01680985277702        5.44800812675143        4.02585186262137
h            2.05583115422675        3.25927834028054        2.10359428747877
h            3.12242922364740        4.65578899541507        1.85654633449300
h            3.38758902271531        3.56722696968195        3.23702855847245
c           -3.04394248625344       -6.18009534117651        2.46292621376795
c           -2.86344193603356       -6.99221170140427        1.29918528984381
n           -2.72256074043710       -7.63132473771455        0.35962446584731
h           -2.14996237836705       -6.21933383216992        3.08454458292406
h           -3.21945313847685       -5.15117721339314        2.14083083079752
h           -3.90113203493454       -6.54038541614934        3.03186933643578
c           -0.26117383507709        5.70380842002501        0.61796628378858
c           -1.61403472409584        5.52397486570123        1.03039720376778
n           -2.69912194465222        5.37841933281181        1.36718924805455
h            0.28751182532714        6.22325334199296        1.40312329476419
h            0.18778980490386        4.72483311493449        0.44656428149656
h           -0.23457211399897        6.28111891427420       -0.30729394057454
c            6.89200504672516       -2.46570003425338        3.05185860530901
c            6.30691651504264       -3.77127690932740        2.98125086552910
n            5.83481576763162       -4.81170187764904        2.91836730955313
h            6.08781545088703       -1.73494514813144        3.13954792249210
h            7.54110002165735       -2.40386738085318        3.92421249424106
h            7.47126130976225       -2.27046151991466        2.15066237139076
c           -6.93349495274691       -3.46004735632191        1.92182175578384
c           -7.01691175021208       -3.03007785502586        0.56524214166696
n           -7.07554294464640       -2.67766144277216       -0.52345782007774
h           -6.98072429555644       -2.58448231258044        2.57288698345900
h           -7.75518725186910       -4.13658600301681        2.14857648558191
h           -5.98022564568296       -3.96496443358229        2.06973472998677
c            2.78184757158011        7.70344622546153       -1.07095836049894
c            3.34732924882524        6.49933504708357       -0.55562951606870
n            3.79692760989396        5.53378119160963       -0.13438817468667
h            2.55356735102621        8.37897562174520       -0.24777416054557
h            3.48807005396331        8.18066303715245       -1.74791098940635
h            1.86328199388601        7.46847988895469       -1.61280995454806
c           -1.61914306511662       -6.33915058477018       -2.36734202939831
c           -1.08125697726433       -5.13984282685400       -1.81461594077365
n           -0.66221031298321       -4.16720911598951       -1.37647587735499
h           -2.07975992960518       -6.92949093132004       -1.57402709809402
h           -2.36458813392586       -6.07378194741286       -3.11648641836425
h           -0.82197766178463       -6.91547351870279       -2.83472224820675
c           -4.91622036984557        4.28229052227697       -0.57451961743143
c           -4.06252392237524        4.13867594875670       -1.70862193868985
n           -3.37180194185369        4.02597337836585       -2.61470366452548
h           -4.34728627110276        4.75534164293986        0.22882070590022
h           -5.77212213495090        4.90361822783098       -0.83474876160032
h           -5.25773169256385        3.30035121453098       -0.24483912129556
c            5.33926778138548        3.01561504992089       -1.60732916724563
c            4.97680987022463        3.19062218886200       -2.97959909838367
n            4.68880069607763        3.33379626591066       -4.08025757723971
h            5.01249663068306        3.88066429048862       -1.03039347779829
h            4.85446288079505        2.11848089633310       -1.22327307799509
h            6.42015165698337        2.90897357222103       -1.52779978309411
c           -3.78017152373280       -2.75037086916054       -1.39653832518313
c           -3.75283345212556       -3.12838206279401       -0.02404739507582
n           -3.76033351242717       -3.43257284487374        1.08080930711328
h           -4.80423672933934       -2.51327794697499       -1.67943669174776
h           -3.15928959828188       -1.86445849807917       -1.52444518335314
h           -3.40614231494802       -3.55735256468582       -2.02537734638449
c           -1.11089659118052        5.43866575835509       -4.26703267754814
c           -0.46479906392964        6.24528325195173       -3.28615258240723
n            0.05633018427307        6.87722979060417       -2.48310082534960
h           -1.93829989591341        4.90337467434357       -3.79256934047019
h           -1.49523455053955        6.06992917192234       -5.06716235517911
h           -0.40142796116964        4.71918990534052       -4.67471316860983
c            1.00878275692650       -1.98586317287413       -3.03067744369037
c            0.57976484291533       -1.90808859359321       -4.38866416686613
n            0.22556393275169       -1.83466096161654       -5.47664632984649
h            0.91788375781677       -1.00380872369592       -2.56754215676742
h            0.38881562039119       -2.70667979199630       -2.49349880192957
h            2.05026848565676       -2.30261287707415       -2.97986264379952
c           -6.75238429709134       -3.31403053255593       -3.68635137720658
c           -6.02492747154271       -2.16183739133346       -4.12202790060488
n           -5.44537152965417       -1.23970241936117       -4.47192452175226
h           -6.09915384135046       -4.18379190539626       -3.74409802138542
h           -7.07790889512929       -3.16921349686988       -2.65469454800385
h           -7.62151512965258       -3.46562942344799       -4.32323544808590
c            3.25869288884663        0.61856260812504       -5.03704526106365
c            3.37930678837366        0.40637918783227       -3.62556937688539
n            3.46809141415786        0.23250312254160       -2.49808829916211
h            3.59817806344473        1.62960973802875       -5.26305845391156
h            3.87605538563850       -0.10432154684347       -5.57107627482645
h            2.22008192934425        0.49708541461963       -5.34141365581692
c           -2.86093362540097       -2.55250225482581       -6.03788749244395
c           -3.11347586280015       -3.57026493746535       -5.07224662881283
n           -3.33199785662602       -4.38227392761127       -4.29325856603919
h           -3.49204343277985       -1.69282401067683       -5.81051797355863
h           -1.80942385230377       -2.26090202233360       -5.99007529160924
h           -3.09176668899009       -2.92445450112283       -7.03510636643836
160
 energy: -234.147967700971 gnorm: 0.158325095064 xtb: 6.6.0 (conda-forge)
c            3.37789309107453       -3.36448330614961       -0.01348485049543
c            4.58166376974222       -2.68860977727535        0.06079382132002
c            4.50852421330708       -1.31872501751696        0.23724345542810
c            3.30480188399102       -0.65870763966939        0.39368028458880
c            2.07515062789296       -1.30566209795109        0.25720921825972
c            2.18147340802131       -2.66810790027424       -0.01825559103526
n            0.90005562552377       -0.55197577778819        0.25114904561987
c            0.98171650862459        0.62824559334108       -0.49361296294724
c           -0.09690126422708        1.07033702452630       -1.25947003507455
c           -0.00779299268606        2.27720754466189       -1.93012852206917
c            1.07967554444654        3.11733583721606       -1.77326984820187
c            2.13258286380385        2.75415142664253       -0.95168460977500
c            2.03723548245992        1.52530354078911       -0.32584134828116
h            3.23053093845907       -4.41427145553897       -0.22073387435885
h            5.56267887883954       -3.13747277333661        0.04935728236476
h            5.48602558568760       -0.89038443301056        0.39812690083460
h            1.35037209486050       -3.35184483176560       -0.08135206532870
h           -1.02407892312901        0.57095703560497       -1.48919000188722
h           -0.93157735394343        2.67735883321668       -2.32023747796220
h            1.16919853348891        4.05489603963019       -2.29953474838663
h            2.85019532838223        3.54489946575294       -0.80231773136126
s            3.31878521463441        1.06088078303065        0.80656764198338
c           -0.31326884622672       -1.33654376626433        0.34724931393459
h           -0.64610204592347       -1.84470261224641       -0.56567422977363
h            0.07270419603742       -1.97795859089769        1.14049164277456
c           -1.52305926055656       -0.64276405251542        0.98793960487518
h           -1.98684415852327       -1.39025096104161        1.64228755729752
h           -1.17180203693931        0.25797917603377        1.50751366615748
o           -2.56968946344990       -0.40875259445069        0.06374563325914
c           -3.69081023902939        0.17816607548874        0.67693366317050
h           -4.17684031514018       -0.52790312992513        1.36412316801959
h           -3.24747411001503        0.99877108862566        1.26153356461408
c           -4.72017121875576        0.60665755656146       -0.36312945825418
h           -4.18170357805175        1.24410346559496       -1.07898836208477
h           -5.15855119499482       -0.28115272095544       -0.83641644153164
o           -5.78845710747872        1.26889943494751        0.27946955256491
c           -7.06961435819479        1.13946152770680       -0.29738376422858
h           -7.35324080026268        0.08256109045035       -0.32787629245164
h           -7.56093700004141        1.68658544354779        0.50557803006892
h           -7.14107696364469        1.53180719804812       -1.31813642297853
c            1.29939139601730        0.47201231984383        4.04693351092694
c            0.56909711447282       -0.73984079843554        4.22126655230796
n            0.01540470161543       -1.73851701863672        4.31677580184487
h            0.63359585971801        1.31437265194749        3.86363821037976
h            2.00745219406133        0.57366141072478        4.87014697049192
h            1.74964112610357        0.48791638331776        3.05440931964437
c           -3.48499798262795       -2.11040512189255        4.11079783678200
c           -3.31549129954178       -0.71940889271776        4.37758453593990
n           -3.27047896579278        0.42239319818933        4.46286458468188
h           -4.07818508329729       -2.58928165916558        4.88861750399677
h           -4.18975082952613       -2.16030791440168        3.27877859254529
h           -2.50819165811635       -2.54232476045425        3.88272464551689
c           -1.97135049974342        3.32804431607070        4.01080716605940
c           -1.35214873458425        2.74397990833855        2.86722303192655
n           -0.81023924109973        2.30511108006277        1.95778573155449
h           -2.01073562822136        4.40291036085461        3.83928651466306
h           -2.93216158359683        2.85453669503893        4.20884808615405
h           -1.46226223388846        3.00640408212144        4.92033774135095
c            2.57027041889406       -3.87311051544477        3.21219946644957
c            3.25235056592868       -2.64009382984382        3.44829668227416
n            3.65343710286588       -1.58270067522665        3.62452003952191
h            1.77737747499570       -4.00270230569034        3.94727383885971
h            2.00256864813327       -3.71180734917462        2.29770346560904
h            3.31223564018872       -4.65191650839706        3.03699754291508
c           -5.89611692457866        1.55622493788391        3.26739920202262
c           -6.24118801851377        0.17259435636979        3.33766126517830
n           -6.49665878700247       -0.94297481093765        3.34689864542047
h           -5.82738216310288        1.99279263896959        4.26372931122418
h           -4.85384738162237        1.62918554008867        2.95646567903584
h           -6.54569725854168        2.05611472091928        2.55133301485270
c            2.04326056659202        3.92160196666580        2.67324285249657
c            1.22646756455009        4.77053186456718        3.48130838025600
n            0.65978171427713        5.47644337506932        4.18479827132421
h            1.47029797357776        3.08774110426918        2.26986911845485
h            2.28993057080886        4.44711855401219        1.75069054130866
h            2.90299226393726        3.60529568799564        3.26009937937739
c           -2.87208294481633       -6.09167503489295        2.66784587826554
c           -2.86976774192020       -7.06427284615094        1.61882037496889
n           -2.69359162586029       -7.81322911628587        0.77081447404660
h           -1.89084605203583       -5.61804930089103        2.66936695746386
h           -3.72827199010303       -5.43270137001566        2.50686151198973
h           -3.01390032718732       -6.56025937683272        3.64180464631960
c           -0.23458533381193        5.38374664900586        0.69039200042338
c           -1.55466143679030        5.40503077961787        1.22855370863175
n           -2.59048690893329        5.26687955618042        1.69760530620589
h            0.44489563523220        5.90822041225997        1.36164709138402
h            0.05160847284409        4.33641369903766        0.58779355338647
h           -0.19175840948233        6.06776243268989       -0.15836579974498
c            6.59225278916005       -2.61199741114376        3.10847888211929
c            6.16621123073925       -3.90553530278799        2.66452693322141
n            5.90271644432871       -4.98257511505448        2.38190826371647
h            6.48395203758190       -2.53396221852653        4.19041902922274
h            7.65468024480068       -2.52648882428586        2.88468197839147
h            5.99272373261296       -1.85508304180938        2.60503464923128
c           -7.46449962012852       -3.59115207650170        1.71188719310210
c           -7.16664384541724       -2.94286790716284        0.47772757747801
n           -6.94621693562099       -2.52618186339561       -0.56663216401760
h           -7.18026310418641       -2.95795780800879        2.55509850035832
h           -8.54150824639248       -3.55645737335568        1.86403573539183
h           -7.00124090015939       -4.57618983401664        1.73706355660872
c            2.33219621309574        7.65003716703393       -0.89838453961068
c            3.23106557178634        6.59511467082542       -0.56016940379194
n            3.91015627292685        5.74882327181996       -0.19342168480861
h            1.91891956114846        8.02650524242684        0.03625884080646
h            2.78351000441449        8.23728316336344       -1.69601160994434
h            1.49729989070975        7.30674895605889       -1.51293834918429
c           -1.24948822300479       -6.53492896324595       -1.96549252833732
c           -1.03275333374081       -5.12677649780454       -1.90805305936084
n           -0.77250866954979       -4.01527086767443       -1.80601822963664
h           -0.97188570620971       -6.99283990660682       -1.01508597771511
h           -2.26856257379556       -6.75225525415021       -2.28421330059139
h           -0.57351160467616       -6.95984493121335       -2.70614568941806
c           -4.72717242150914        4.25281983135798       -0.55986100778838
c           -3.65685988489921        4.23004872308628       -1.50300648746703
n           -2.86280623507844        4.23942885263083       -2.32773288574566
h           -4.48637358945218        3.60517875683692        0.28594985028601
h           -4.84894793011453        5.28207201642205       -0.22497920517881
h           -5.67352143762595        4.04726135998677       -1.06155142200430
c            5.57126127183798        3.48958172512847       -1.82936548981578
c            5.16429329175267        3.45913536605013       -3.19997779180100
n            4.90252037536756        3.51129342594499       -4.31516910491480
h            5.40624517923295        4.48190508695833       -1.40983194164076
h            5.03971594732294        2.71914384098780       -1.27145008804985
h            6.65702692789649        3.45520998323831       -1.75230185558852
c           -3.95172001765806       -3.01610538622161       -1.37109890081912
c           -3.87937241018911       -3.32545663844645        0.01686320685482
n           -3.91115024001114       -3.66851798395448        1.10983882320177
h           -4.75593061112364       -2.28740976328441       -1.45596406068645
h           -3.16902403045935       -2.34031929190870       -1.71372902983568
h           -4.07369074445420       -3.97444943726591       -1.87434401222640
c           -0.71284271577930        5.77714997674239       -4.89910811100608
c           -0.40442189793643        6.32203245544807       -3.61919434818448
n           -0.13565861382414        6.77302438304650       -2.59929394916764
h           -1.57015921094312        5.10169183415441       -4.82830587751087
h           -0.70705617275461        6.60056954447115       -5.61210418164034
h            0.02177414090612        5.01265459389363       -5.15026444938804
c            0.53654985760670       -1.80037468831933       -3.06129187386702
c            0.47852336268006       -2.03228707201175       -4.46737962654218
n            0.34362235757221       -2.26255935317211       -5.58242737628744
h           -0.44729887022360       -1.45079443303208       -2.74980641827867
h            0.68966056534061       -2.76955420684703       -2.58197474085995
h            1.25371490934682       -1.03645448153635       -2.76178352944437
c           -6.72720484896062       -2.77849591101564       -3.63740077779726
c           -5.87655293672311       -1.78879709546731       -4.22344179979720
n           -5.21524026000410       -0.95988405004355       -4.65264379017008
h           -6.14600925283191       -3.58011236454947       -3.18336081328875
h           -7.27624518674509       -2.30390524931122       -2.82218763861107
h           -7.32827176876683       -3.23071817850963       -4.42366124753065
c            2.76659219838774        0.85906246293515       -4.80649199796157
c            3.15439362378520        0.35596114349540       -3.52261785885729
n            3.40760770571106       -0.06032991571676       -2.48728527499106
h            3.57623735487297        1.45913776915738       -5.22234388678984
h            2.42260873371041        0.06635659150459       -5.47145805351497
h            1.82789128280248        1.40332844436454       -4.71308597030178
c           -2.81252755184005       -2.66109506184725       -5.43438683931751
c           -3.34056096171373       -3.67213569182446       -4.57936736588376
n           -3.75605916625421       -4.44799275397247       -3.84496970456807
h           -2.87696144761007       -1.69324267112472       -4.93623706926879
h           -1.79886153718806       -2.92610931812836       -5.74299364378629
h           -3.51642723858884       -2.45141975370838       -6.23852573004090
160
 energy: -234.211265016585 gnorm: 0.130653788082 xtb: 6.6.0 (conda-forge)
c            3.49812642845908       -3.31302057400360       -0.61842099907003
c            4.67915617106948       -2.73405937307281       -0.19255859175460
c            4.65136402646767       -1.44017646661783        0.29546050198708
c            3.44837578980847       -0.76791571290638        0.39509699510244
c            2.24659165562718       -1.37429110064544        0.02463767404792
c            2.29236266359792       -2.63471755584492       -0.56922584220245
n            1.06645652305876       -0.63311431370068        0.10749771612257
c            1.06445777666854        0.66656461486285       -0.40737293850791
c            0.02044269178333        1.14076008717964       -1.20145674286750
c            0.12063614390434        2.33275604254977       -1.89670226425369
c            1.22348142237381        3.13530392284768       -1.66723086843333
c            2.27063707560379        2.74069441889674       -0.85281861741770
c            2.15243221201305        1.51915802355385       -0.21664705492737
h            3.55020690858594       -4.32326079536317       -0.99713618674655
h            5.48031144320257       -3.44082542715046       -0.34299580801844
h            5.47231529909060       -0.83994326773564        0.65688422895431
h            1.34455716439931       -3.01083371830803       -0.91909443143192
h           -0.86552177492630        0.53011123488375       -1.26458279532435
h           -0.58404741117690        2.68493620580414       -2.63499337768254
h            1.08859774282372        4.08632431764896       -2.15850960878462
h            3.17241634793476        3.26904708582133       -0.58786938384500
s            3.32041791507448        0.90157699174687        0.96437419447097
c           -0.14610209976437       -1.42010414316564        0.19286079086403
h           -0.46450409842252       -1.82650306392343       -0.77455472279580
h            0.18203471098043       -2.33718803674928        0.68368142581742
c           -1.32701871526867       -0.73645789315876        0.89533560208821
h           -1.65968845046700       -1.32151846546934        1.76080617473823
h           -0.97291451722385        0.18171542707300        1.38138617646443
o           -2.28799029592716       -0.48918848422145       -0.11447729370860
c           -3.55633268589520       -0.16889756933145        0.40137751756916
h           -4.11251392093656       -1.11630947053066        0.40921943029748
h           -3.57158751602559        0.27631188218245        1.40798190319455
c           -4.25561759479943        0.74832574302103       -0.59592999902234
h           -3.49001404083675        1.52240487629883       -0.74887231029501
h           -4.32665632071506        0.21505422153154       -1.55246522812095
o           -5.38396677689110        1.33303795521891        0.01862047580146
c           -6.64178117851697        0.98426189542658       -0.51723026189275
h           -6.61953937755295       -0.10149529756961       -0.65524804090231
h           -7.46521490538245        1.15942128187801        0.17325235741382
h           -6.90796246999043        1.65203420699648       -1.34439752388402
c            1.12747092998349        0.60668196279905        4.33144679890866
c            0.40157601100103       -0.61462800458975        4.44887020973189
n           -0.11625748122312       -1.63482151618278        4.51294181680296
h            1.86354352177754        0.36184357909633        3.56678798745355
h            0.48267552691471        1.45899444789339        4.11427095461123
h            1.67227618361473        0.82216783686753        5.25059591774174
c           -3.50776268734705       -2.17500832907824        4.35069382150152
c           -3.23286977630419       -0.78244105070884        4.49200351936448
n           -3.19672312238473        0.35566345957953        4.36385378360786
h           -4.35583498129218       -2.45389154855431        4.97454848662355
h           -3.92059783357176       -2.29636138161756        3.34756697739229
h           -2.58315574848519       -2.74533091725967        4.46275052310179
c           -2.17736772741462        3.12424746872887        4.40889843680497
c           -1.69077299683972        2.61342972040925        3.17010163087813
n           -1.24157246702613        2.25644762973271        2.17806805189996
h           -3.06552463217143        2.57045102336150        4.71021943849805
h           -1.36698949189390        3.19689147252816        5.13318952205246
h           -2.41825636468314        4.17807728113625        4.26300614491590
c            2.30441518079929       -3.57884344383306        3.06688697133238
c            3.00950185829516       -2.41228240488504        3.49501485981383
n            3.38488458652037       -1.35210149719563        3.70740510324382