166
 energy: -243.189406263610 gnorm: 0.001170259992 xtb: 6.6.0 (conda-forge)
C           -3.62545000004405       -0.26991000004838        2.79693000004333
C           -4.61558866474914        0.04936145729939        1.88513441775311
C           -4.25654841245263        0.43431709862005        0.60528233218238
C           -2.92197179331875        0.46556342251062        0.24247777880814
C           -1.90867783615965        0.13384446686808        1.14509082187838
C           -2.28966456074381       -0.21630818989583        2.43954519095452
N           -0.56928501346715        0.16461962597271        0.73806180242433
C           -0.15100721644759        1.26129662853979       -0.02527096539718
C            1.06601473807575        1.90576095977100        0.19304764015347
C            1.45229183026331        2.97451445989166       -0.59658661228433
C            0.62997500104879        3.44312960181595       -1.60647268246465
C           -0.58868326690621        2.82590603438628       -1.82809622596006
C           -0.96333169484421        1.74096477730794       -1.05602590866580
H           -3.88655103830855       -0.55886426721797        3.80316019125592
H           -5.65665204988408        0.00653875155540        2.16520021056039
H           -5.00504860726802        0.69596256373038       -0.12729686475146
H           -1.54162476338396       -0.44168959357117        3.18168248525484
H            1.72889894839568        1.55750812510341        0.96723031951508
H            2.40708530547668        3.44343136492217       -0.41324533172055
H            0.93088723074280        4.27749838979964       -2.22053348013817
H           -1.25188490855090        3.16581342016888       -2.60908758562749
S           -2.49377052598754        0.91802846210004       -1.41966234393790
C            0.39807977870469       -0.58096944356616        1.51771061379164
H            0.79669201562707        0.00103434311423        2.35868694311306
H           -0.12326398335828       -1.45278799367802        1.91524002048847
C            1.59570099643936       -1.05705582329429        0.67850738679485
H            1.62661244188496       -2.15553449428172        0.63994783007683
H            1.51987776937498       -0.68651341311491       -0.35529798438392
O            2.77606118899620       -0.57145609904836        1.27788298272749
C            3.94649655521760       -0.95028889011494        0.59072828820629
H            4.01967383607796       -2.04704014365895        0.55292181272599
H            3.92695002858006       -0.56123764176367       -0.43754353959384
C            5.15744376701140       -0.38206636861989        1.32007855820691
H            5.01879375295463       -0.51895590561980        2.40183955988149
H            6.06108608312628       -0.92802564440315        1.00989635235574
O            5.29008507966116        0.98701145864602        1.01113466055447
C            6.34646504682791        1.60516774786052        1.70672616367359
H            7.30825439761668        1.13904349250695        1.45874570935180
H            6.35227241533279        2.64795611059271        1.39625524608680
H            6.19565673166301        1.54444661052003        2.79127477133527
C           -1.36847010346938       -2.52378025646755       -1.42354547444558
C           -1.58885954570643       -3.23821745697598       -0.20381762493908
N           -1.76948131379547       -3.80867358702010        0.77240681282970
H           -0.69286155479456       -1.69097428617257       -1.23409250491603
H           -0.92877617178362       -3.18889753458580       -2.16524116434709
H           -2.31586837321409       -2.13569376283242       -1.79538103890402
C            2.97477418319834        0.08203567394423        6.77931301731495
C            1.63794895286842       -0.33939266991432        7.07351227702381
N            0.56937630307825       -0.67721528616034        7.30844473396497
H            3.56527720707258       -0.77847859085453        6.46655557610228
H            2.95364922625062        0.81971361116013        5.97831743016748
H            3.42128888342078        0.52631791181128        7.66811683197108
C           -3.22940352020911       -3.81911063229073        8.14733346722104
C           -2.87581005345683       -4.99219577617958        7.40571996623753
N           -2.59980957890118       -5.93053197026429        6.81004407939922
H           -2.49985619626530       -3.65636897345189        8.93956399237856
H           -3.23502037669451       -2.95811996503840        7.48051463267343
H           -4.21981851355655       -3.94824150599034        8.58192772540391
C            1.56484401499358        5.31441744576909        4.31970965198591
C            0.29657859347248        4.64898607824582        4.29816344694744
N           -0.71828362178459        4.11879956808020        4.28403319668277
H            1.86016401066314        5.49963966640648        5.35166451551587
H            2.31401299168003        4.69021264744732        3.83486893934424
H            1.48602657313264        6.26119777244165        3.78705321060617
C            1.87227871516685       -5.76879783686911        3.83178836266348
C            3.14667200071271       -5.15736310368222        4.06033608533822
N            4.16596751539739       -4.66771354855104        4.24156441058584
H            1.82236990924569       -6.71812607285726        4.36352474227052
H            1.08242541069132       -5.11027648994743        4.19098060807057
H            1.74044394380998       -5.94502710095886        2.76502673599574
C           -6.69554283487317        1.56525565336386        7.34197137864441
C           -6.98469711321140        0.19418970691290        7.04271492658727
N           -7.21463088672246       -0.90161115092415        6.80320253860121
H           -6.61478318523800        1.69134925348763        8.42092828341405
H           -5.75477856070220        1.84896019191287        6.87148432935363
H           -7.49719554542920        2.19649176527901        6.96086540929565
C            7.74696369873515        5.68702150734555        5.46489515584527
C            6.77474231041252        4.83360351790715        6.07957864366402
N            5.99823899657855        4.15010206387281        6.57050547736605
H            7.34701220385101        6.69737284576390        5.39019590405574
H            8.65412726301798        5.69705878239570        6.06771130954970
H            7.97536379383981        5.31536058902426        4.46693734371829
C           -2.57211974441533       -8.68040074134907        2.05902604990371
C           -1.33321739817756       -9.37468743615857        1.87471608111556
N           -0.34095882373557       -9.92764177032765        1.72991769169024
H           -3.32628764824597       -9.37221819003075        2.43157069093507
H           -2.43178972112479       -7.87449864687991        2.77782944958466
H           -2.89950405120252       -8.26381313437276        1.10732485804697
C           -3.41769307397536        6.59682678897241        0.90559388674615
C           -2.15805424279956        7.19099580306985        0.57268985394788
N           -1.15373751289548        7.67350540731773        0.30845484979369
H           -3.62476424492065        6.75558774519471        1.96310171130874
H           -4.20410106871353        7.05354925570171        0.30620508590779
H           -3.38037204564338        5.52760369707562        0.70155540932104
C            7.50166919840601       -5.38433547808978       -0.36003464510765
C            7.44229789470975       -6.73977749435447       -0.82095466002923
N            7.39285623408760       -7.82139305415659       -1.19380922248224
H            6.98205715345537       -5.30318672846898        0.59405087366341
H            8.54259112268230       -5.08653588591503       -0.23670873680960
H            7.02273249888155       -4.73316965147284       -1.09098167595235
C           -6.40355071428645       -4.90548307926248        3.49453090730458
C           -6.80956432581484       -5.76497788880839        2.42337382041733
N           -7.13367130407634       -6.45217104531470        1.56652750579818
H           -5.36444494972266       -4.61307246303015        3.35020435918577
H           -7.03261727025037       -4.01644765573260        3.50672890204129
H           -6.50420881989685       -5.43356772348848        4.44170692737126
C            3.95193896819635        8.34773676297257       -0.55526766873278
C            4.69100985658863        7.69313624561965        0.48152805884956
N            5.28127073180974        7.17293181118700        1.31378357399647
H            3.52112085838739        9.27003623884746       -0.16772949896864
H            4.61601129806411        8.57586069390850       -1.38794376664807
H            3.15247349291473        7.69374328477132       -0.89991899118531
C            2.46157030151791       -8.35392952647789       -2.14801786133096
C            2.53385053691914       -6.94706286265691       -1.89323651692144
N            2.59705927967014       -5.82175857237007       -1.69015285919652
H            2.88880399362078       -8.89644109843677       -1.30554774177304
H            1.41998125311002       -8.64600812946006       -2.27723254395567
H            3.02466556209828       -8.58721405060234       -3.05080446643361
C           -5.97366635281962        2.87324530740424       -4.84921739769603
C           -5.75790467722727        4.03870562378782       -4.04458382790678
N           -5.58638794271178        4.96876515789157       -3.39923442040511
H           -6.38845159607382        2.07790753414887       -4.23133922957855
H           -6.66823214992355        3.11056050454326       -5.65391488086646
H           -5.02548820573444        2.54433639427351       -5.27235828164186
C            7.57497598470862        1.70220277359124       -3.39334706047370
C            7.93600430477554        0.34590222775443       -3.10622998637858
N            8.22672029249242       -0.73763748128647       -2.87771769456291
H            6.52714543352994        1.85875717409726       -3.14050575745293
H            8.19554981000341        2.37656533152734       -2.80468148138275
H            7.72505221861862        1.89860820231340       -4.45417525042996
C           -4.98618277883565       -5.88064783699989       -3.29084617647067
C           -3.80598540717209       -6.69095677441122       -3.33659293133903
N           -2.86171420460234       -7.33748365001848       -3.37842070097450
H           -5.11543473531755       -5.48470391000007       -2.28448705595141
H           -4.88773258042991       -5.05727716887162       -3.99732780036040
H           -5.85233192071184       -6.48652731759529       -3.55395705694880
C           -1.60250793298881        7.41355744444258       -5.27126967105906
C           -1.59611232594696        6.20514244023802       -6.03952771560102
N           -1.59183114165163        5.23773675929990       -6.65226800845488
H           -1.64026101474163        7.16885742168342       -4.21047817178547
H           -0.69724092396936        7.98233720276397       -5.48017812968260
H           -2.47697981964742        8.00652034380026       -5.53613469520300
C            4.38395372287648       -2.81412869158032       -5.60227779189792
C            4.35870406705888       -1.48139222843211       -6.11798362047861
N            4.33644755912670       -0.41182157992309       -6.52876694971594
H            4.42517909432311       -2.78275296435797       -4.51448908337253
H            3.48282795112921       -3.34336208592781       -5.91425826732003
H            5.26083811234591       -3.33561879845953       -5.98309424595291
C           -1.03535377430069        0.07182898330625       -6.90290730256107
C           -2.00263857166381       -0.93138261722451       -6.57343245184760
N           -2.78093193057425       -1.73023209222090       -6.31371271331678
H           -0.79843716428028        0.65398909260437       -6.01350798442789
H           -0.12932652591664       -0.40484508496456       -7.27481454943933
H           -1.44107072947569        0.73088075598345       -7.66949843424904
C            3.30571695004119        4.51681340749681       -7.00118678092480
C            3.46804248538172        5.55729623392494       -6.03110686463230
N            3.59748115591826        6.39105100927511       -5.25680032213577
H            2.67417246539717        3.73191112359373       -6.58765055483321
H            2.83717161860146        4.92444698446576       -7.89601340953577
H            4.27903651939052        4.10015894809594       -7.25668258680705
C           -0.07097997197516       -6.20497438254811       -7.40028406076553
C            0.90444054484028       -5.27054586396309       -6.93018849836002
N            1.68975018411903       -4.52471855430473       -6.55853248141254
H           -0.00128893214378       -7.12397992293569       -6.81978469235476
H           -1.06650714844101       -5.77888567159943       -7.28363009121820
H            0.11260995576763       -6.42181202488315       -8.45199077746356
