163
 energy: -251.544234821420 gnorm: 0.000676204150 xtb: 6.6.0 (conda-forge)
C           -3.53561000008754        0.97471000032849        0.77917999994613
H           -4.56844351941143        1.26628136437449        0.83530373431508
C           -2.68389192173399        1.15908447575525       -0.33170329764391
H           -2.96082077468892        1.60579873316549       -1.26995340807980
C           -1.38791343861673        0.69143784771993        0.02806739913421
C           -2.77973601771047        0.39394547525359        1.82427486195998
H           -3.14393310197252        0.15368729652127        2.80591912124518
C           -1.45779269082167        0.21870203132194        1.36763625289906
H           -0.64216947108558       -0.20260112087912        1.92546923509432
C           -4.21337811549686       -2.13732999768629       -0.65532141271263
H           -5.24650136435728       -1.90116807244223       -0.83778502679760
C           -3.15598182421475       -1.99398856143964       -1.58193996876767
H           -3.24162982325668       -1.62026840117127       -2.58600318271568
C           -1.97427109063053       -2.47227538332227       -0.97225940797167
H           -1.00052509973150       -2.53014996700685       -1.42244812445377
C           -3.68278530821087       -2.70142816863504        0.53007210312860
H           -4.23911157469408       -2.96825333915494        1.41104272142086
C           -2.30033281358889       -2.90994626916895        0.33002890037283
H           -1.60578166926046       -3.32150400065390        1.03861896481767
Fe          -2.73640846763550       -0.87196541332858        0.13325476155498
C           -0.18121008406679        0.67730692589484       -0.84907161491453
H           -0.48480793051016        0.54488120205319       -1.88860508038259
H            0.45520509930642       -0.16132125841561       -0.56828750383105
N            0.63700036588714        1.92849330904152       -0.76245723155227
C            1.12081201814674        2.12829962562094        0.61346975419214
H            0.27623396787519        2.23562904773309        1.29013370862159
H            1.72012173935838        1.27251379022983        0.91944638222306
H            1.73137174254585        3.02832152514121        0.64630312289329
C           -0.17180604252931        3.09232375716304       -1.16348212630900
H            0.44703561989979        3.98663599951588       -1.11013473858728
H           -0.53036220596694        2.95957754934838       -2.18129898597388
H           -1.02172324051932        3.19638950832452       -0.49362651634172
C            1.79613476856871        1.81239981745278       -1.66191268601139
H            1.45867099123236        1.65758424742750       -2.68407488735654
H            2.38139974267409        2.72842927975315       -1.60376864181400
H            2.41432264361435        0.96793137379208       -1.36227077056814
P            2.10072414592095       -2.64371774014953        0.21815920881999
F            1.56132489180463       -4.17133954801139        0.15228781222569
F            1.47287011372662       -2.35175898489286       -1.24846372530031
F            3.49067167868249       -3.11323508864342       -0.48348916649405
F            2.64610695635461       -1.11401608382323        0.27254772114601
F            2.75144393738907       -2.93490278459975        1.67673534169366
F            0.72936869423316       -2.17138802438725        0.91797705804637
C            1.27125028851004        1.04689867990843        6.29939805865720
C            2.58776534118985        0.53708519579082        6.06999610560335
N            3.64657519839829        0.13781421681167        5.88899713586642
H            1.24477301646132        1.55503653238736        7.26221413596204
H            1.01080431511004        1.74885791004596        5.50930346626648
H            0.55711320344189        0.22299346548010        6.30631346269005
C           -2.48976407597382       -3.44533710289040        6.27690103981368
C           -1.65021287560598       -2.29298009373680        6.38702071971303
N           -0.98134256340135       -1.36772339962504        6.47446459034732
H           -2.18991017492290       -4.18660486410026        7.01661989453146
H           -3.52555106750578       -3.15664097563272        6.44995126585880
H           -2.39297585625152       -3.86956286521575        5.27839790246433
C            0.95598603240224        8.08401620722630        5.44140955539581
C            0.86457122888346        6.91556144959524        4.61840397422488
N            0.78679115131364        5.98180333575397        3.96065906014427
H            1.76290444300188        8.72015775286337        5.08008641833196
H            0.01429096934839        8.63025012952645        5.40071593574563
H            1.16194074461980        7.78859082803310        6.46935900374419
C            2.50045180098455       -4.83475348287760        4.62437744375458
C            3.64166836198882       -5.69956889648015        4.61462666906069
N            4.55067063577853       -6.39597177196469        4.61076225768016
H            2.52172432295255       -4.21680381807485        5.52054512055036
H            2.52593661483343       -4.19324652996246        3.74455149659582
H            1.59167783980370       -5.43448818940729        4.60790725432799
C           -6.44959648175220        3.68110913175679        5.23986715388379
C           -7.11853659605386        3.78813312742995        3.97835078973633
N           -7.64843206505511        3.87319698894299        2.96681850852443
H           -6.18272973912737        4.67569076477056        5.59523110420207
H           -7.10960658844651        3.20127189333322        5.96139350621972
H           -5.54787386491603        3.08158273962990        5.12181277310279
C            5.80154426220439        4.38300798220987        3.25843979323775
C            5.75243604295831        5.78050758022004        3.56563323818892
N            5.71241081332027        6.89927975939734        3.80711591267060
H            4.86354423833196        3.91136027302480        3.54737103316012
H            5.95883099565595        4.25140931808946        2.18909691246170
H            6.62101280490571        3.91680611175089        3.80366784475858
C           -2.46541418073907       -6.35020155267197       -0.30733951772477
C           -2.20116792945757       -6.76325050505607        1.03766782983174
N           -1.99754808404476       -7.08986189733331        2.11637522886876
H           -3.40324877200457       -6.78882518956322       -0.64444776736943
H           -2.53382951864354       -5.26145566381058       -0.33854150180559
H           -1.65141428794425       -6.67685932051254       -0.95273749945092
C           -3.49304362570110        6.58381536282025        1.62154019954944
C           -3.83502902439723        7.49223429824069        2.67440562350581
N           -4.10869251907028        8.21279898384106        3.52151098628823
H           -4.34577330583073        6.46496191946612        0.95505659215022
H           -2.64431954762303        6.97718299574529        1.06378447068145
H           -3.23049244194493        5.61854771544673        2.05134739717574
C            6.27600541049368       -2.22136430183778        1.77328358696577
C            6.56024658594517       -0.93103132041612        1.22516529041864
N            6.78973830574621        0.10260735095634        0.78920393592631
H            6.26940973481868       -2.16404166504855        2.86062975712071
H            5.29691507298336       -2.54761739830719        1.42468014678752
H            7.02924209281402       -2.93625730923241        1.44593041130309
C           -8.65303762280263       -1.26921966716851        2.60874504522755
C           -7.83073625429567       -1.25217887666661        3.78184307002063
N           -7.17152416657146       -1.23786765025963        4.71774819336323
H           -9.70051613440102       -1.20623676166554        2.90066782613316
H           -8.40019557273667       -0.41821284321769        1.97822897905625
H           -8.48355246122154       -2.19438756500253        2.05972784206150
C            2.87272930754916        7.46910566464944       -0.72572305560021
C            2.67374108156811        6.05940751373550       -0.76098637962205
N            2.49044269740697        4.92841794482257       -0.80014178777232
H            2.92523146134745        7.80490186219363        0.30892859678425
H            3.79761256132148        7.72502666512966       -1.24037212670770
H            2.03079901724797        7.95121116463312       -1.22601468682841
C            3.69269240352879       -6.97901037454333       -0.46759019860918
C            5.07659454549185       -6.79358168942694       -0.78615037811206
N            6.18079424060047       -6.64951133320780       -1.05233080401502
H            3.60197273741163       -7.64311922510018        0.39034690239928
H            3.24545739950821       -6.01506930909103       -0.22725302288129
H            3.17829009265994       -7.41217023408673       -1.32405286322293
C           -8.23714414062711        4.96117332154670       -2.45019408511126
C           -6.84659450502659        5.05500270178577       -2.78257365919276
N           -5.73524146318173        5.13055567336595       -3.04680432869225
H           -8.34187172668958        4.72515529198079       -1.39186936100878
H           -8.72524201405232        5.91233592439353       -2.65930872987913
H           -8.70079765070822        4.17604132248778       -3.04611960847963
C            6.87507105500967        3.26306382774911       -3.26343420794759
C            6.58255429022226        4.55800220683447       -3.79946914538970
N            6.34710510713171        5.59454457181891       -4.22566249152242
H            6.64796325110137        3.25048978298115       -2.19870388225999
H            6.27207920827192        2.51070387072681       -3.76987694878467
H            7.93074518187022        3.03850086004692       -3.40949949790446
C           -4.12689496770688       -5.14091073534252       -5.54773434448708
C           -4.23388046640085       -4.06894936424517       -6.49239850648530
N           -4.32298272062372       -3.21298522338065       -7.24748609066000
H           -3.12881252493483       -5.14030231681529       -5.11144964190346
H           -4.86802682965112       -5.00593564874947       -4.76115595194040
H           -4.30111951694901       -6.08911371498846       -6.05473418608091
C           -1.55671435912801        7.81179164196236       -4.26108632178160
C           -0.60413497314626        8.10253872575441       -3.23556338413393
N            0.15959968105533        8.33171198315561       -2.41331571084020
H           -2.51071184502604        8.27629333585991       -4.01509050120743
H           -1.19648840402912        8.20173995140216       -5.21233603210765
H           -1.68943352147683        6.73349144234097       -4.33923921169599
C            3.53004731326910       -3.27436980396460       -4.21447017518695
C            3.68693452851821       -1.98479125782039       -4.81065936028712
N            3.80589873053763       -0.95413982191262       -5.29628963468559
H            3.18660068347970       -3.15784288617111       -3.18706127846047
H            2.79574188001597       -3.84733655388941       -4.78183996243705
H            4.48498953048268       -3.79729566118300       -4.21623799275284
C           -3.65042370939116        1.70095481519167       -7.92302016816248
C           -2.80595011459507        1.55158338269083       -6.77670045506281
N           -2.13151617454404        1.43530107623478       -5.85898804572673
H           -4.68183350179393        1.49225275529879       -7.64228334717360
H           -3.57133791625597        2.72029109501398       -8.29888171442190
H           -3.33884541567526        1.00207338546567       -8.69801549909455
C            2.23100704452152        4.19570971626129       -6.76862567244505
C            1.16730541748592        4.71427846488904       -7.57503357509422
N            0.31480639635521        5.13103153711275       -8.21621480516146
H            2.20732035440512        4.66799599672825       -5.78755616208450
H            2.11337733645705        3.11848913371365       -6.65914472305849
H            3.18592698140218        4.40864839961998       -7.24728839158406
C            0.57004768419114       -2.89512980506511       -8.28567737420174
C            0.91289412016210       -3.82015422544102       -7.24951719944246
N            1.18495413822937       -4.56025880495527       -6.41875585616526
H            0.11668965535511       -2.01057217329489       -7.84047074866105
H            1.47166795540635       -2.60863592376186       -8.82553936366519
H           -0.13565198779202       -3.36134749697649       -8.97181865691950
