46
 energy: -234.482453662839 gnorm: 0.000574927048 xtb: 6.6.0 (conda-forge)
C            2.73014999972428       -3.27783999958038       -1.01554000017843
C            3.89695379099251       -2.78946634627173       -0.45436938787068
C            3.92097393374324       -1.49751995958806        0.04175338390360
C            2.77808213904773       -0.71865525653355        0.00082056926261
C            1.58769581148492       -1.19672449344266       -0.55408911008146
C            1.59472347470572       -2.48862905277659       -1.08085563286705
N            0.44936977529519       -0.38704413007918       -0.58725109161153
C            0.60459350105736        0.96207753644441       -0.91603993398845
C           -0.29145458171672        1.62999086126241       -1.75091482977210
C           -0.12049162754652        2.96923457642995       -2.05366516900812
C            0.96116565559415        3.67260173290472       -1.55331320717053
C            1.87315185022113        3.02346263809339       -0.73944991606821
C            1.68703519938577        1.69104944978534       -0.41578762030036
H            2.69920782863465       -4.27851550297279       -1.41891369977374
H            4.78183223482647       -3.40439418184316       -0.40602637781866
H            4.81582262584943       -1.08832319874655        0.48478867544425
H            0.70894261375377       -2.88264745338876       -1.55334860895517
H           -1.13174906127788        1.10117340782428       -2.16881156829683
H           -0.83950186045434        3.46114983631483       -2.69136437312372
H            1.09635746971670        4.71626103880162       -1.79003805719212
H            2.72419533227760        3.54819200913391       -0.33357557645576
S            2.82859045601196        0.91206672246245        0.69826666904894
C           -0.86223077057701       -0.99053538600510       -0.64801751314849
H           -1.29332391484275       -0.98085498101235       -1.65593473774711
H           -0.78120463842719       -2.03036632234810       -0.33198638777360
C           -1.83083874084644       -0.29333865564901        0.31572611646270
H           -1.48235886391544       -0.42182606559147        1.35293377586550
H           -1.88001956730610        0.78613016916977        0.10985421947245
O           -3.10061811338886       -0.88022016026288        0.14653544425744
C           -4.08320976199614       -0.32660538546867        0.99260863734254
H           -3.82041528736720       -0.51529008539001        2.04449905444677
H           -4.15494191236812        0.75954733085704        0.83665874540963
C           -5.43039141281115       -0.96754765685459        0.67927002988647
H           -5.26975598046586       -2.02783800581873        0.44014880385927
H           -6.08536891080685       -0.89879281904301        1.56089819127934
O           -6.02931452988394       -0.30556846797304       -0.41277534933354
C           -7.23901274986540       -0.90628706108697       -0.81235935072624
H           -7.97133670189417       -0.89897356536123        0.00445077797179
H           -7.61738543112521       -0.32189132779570       -1.64810371174355
H           -7.07977062821336       -1.94274169251035       -1.13173369917669
C            2.80204625557896        1.03354840649713        6.74126296607308
C            1.82562904423986        0.25228987442821        7.43895104625337
N            1.04593235497889       -0.37260689639863        7.99818784587658
H            2.93348728355684        1.98686844426667        7.25145608620104
H            3.74942595819189        0.49655013573869        6.72159155184592
H            2.46280381176469        1.21049683645851        5.72143436067756
