46
 energy: -68.732513365061 gnorm: 0.040770588832 xtb: 6.6.0 (conda-forge)
C            2.73014999972428       -3.27783999958038       -1.01554000017843
C            3.89695379099251       -2.78946634627173       -0.45436938787068
C            3.92097393374324       -1.49751995958806        0.04175338390360
C            2.77808213904773       -0.71865525653355        0.00082056926261
C            1.58769581148492       -1.19672449344266       -0.55408911008146
C            1.59472347470572       -2.48862905277659       -1.08085563286705
N            0.44936977529519       -0.38704413007918       -0.58725109161153
C            0.60459350105736        0.96207753644441       -0.91603993398845
C           -0.29145458171672        1.62999086126241       -1.75091482977210
C           -0.12049162754652        2.96923457642995       -2.05366516900812
C            0.96116565559415        3.67260173290472       -1.55331320717053
C            1.87315185022113        3.02346263809339       -0.73944991606821
C            1.68703519938577        1.69104944978534       -0.41578762030036
H            2.69920782863465       -4.27851550297279       -1.41891369977374
H            4.78183223482647       -3.40439418184316       -0.40602637781866
H            4.81582262584943       -1.08832319874655        0.48478867544425
H            0.70894261375377       -2.88264745338876       -1.55334860895517
H           -1.13174906127788        1.10117340782428       -2.16881156829683
H           -0.83950186045434        3.46114983631483       -2.69136437312372
H            1.09635746971670        4.71626103880162       -1.79003805719212
H            2.72419533227760        3.54819200913391       -0.33357557645576
S            2.82859045601196        0.91206672246245        0.69826666904894
C           -0.86223077057701       -0.99053538600510       -0.64801751314849
H           -1.29332391484275       -0.98085498101235       -1.65593473774711
H           -0.78120463842719       -2.03036632234810       -0.33198638777360
C           -1.83083874084644       -0.29333865564901        0.31572611646270
H           -1.48235886391544       -0.42182606559147        1.35293377586550
H           -1.88001956730610        0.78613016916977        0.10985421947245
O           -3.10061811338886       -0.88022016026288        0.14653544425744
C           -4.08320976199614       -0.32660538546867        0.99260863734254
H           -3.82041528736720       -0.51529008539001        2.04449905444677
H           -4.15494191236812        0.75954733085704        0.83665874540963
C           -5.43039141281115       -0.96754765685459        0.67927002988647
H           -5.26975598046586       -2.02783800581873        0.44014880385927
H           -6.08536891080685       -0.89879281904301        1.56089819127934
O           -6.02931452988394       -0.30556846797304       -0.41277534933354
C           -7.23901274986540       -0.90628706108697       -0.81235935072624
H           -7.97133670189417       -0.89897356536123        0.00445077797179
H           -7.61738543112521       -0.32189132779570       -1.64810371174355
H           -7.07977062821336       -1.94274169251035       -1.13173369917669
C            2.80204625557896        1.03354840649713        6.74126296607308
C            1.82562904423986        0.25228987442821        7.43895104625337
N            1.04593235497889       -0.37260689639863        7.99818784587658
H            2.93348728355684        1.98686844426667        7.25145608620104
H            3.74942595819189        0.49655013573869        6.72159155184592
H            2.46280381176469        1.21049683645851        5.72143436067756
46
 energy: -68.734628186855 gnorm: 0.021663476292 xtb: 6.6.0 (conda-forge)
C            2.72152069190170       -3.28177545585493       -1.00756335230295
C            3.89167086752800       -2.79207128335213       -0.43880420708557
C            3.91784954497219       -1.50514917572307        0.06391467314518
C            2.78058116435321       -0.71254664505917       -0.00425783482894
C            1.58389453920023       -1.19643918320019       -0.56264197240750
C            1.58357754192444       -2.50147052659564       -1.06643300925075
N            0.45084257952142       -0.39171913192089       -0.62256932672074
C            0.60320950530405        0.95730439088373       -0.92415814502477
C           -0.30899342948501        1.63380994154064       -1.74148631107740
C           -0.13058749571171        2.96855371139901       -2.04583558629437
C            0.95360932664682        3.67537443952047       -1.53805182973049
C            1.86354031678061        3.03233645326132       -0.72052154797100
C            1.69407526672139        1.68817683091672       -0.41963464166303
H            2.69802165122685       -4.27567361153813       -1.42666555112047
H            4.78113156531533       -3.40083807041460       -0.40601991954182
H            4.81895436696605       -1.09452523722814        0.49182640265376
H            0.70516134516230       -2.89043181689364       -1.55515076132193
H           -1.13885080281294        1.10192623029274       -2.17669128753003
H           -0.83680507464915        3.45663636909659       -2.69955958278374
H            1.09795383221547        4.71389356856961       -1.78991266878941
H            2.71918046227908        3.55660975971261       -0.32505094128782
S            2.85781348564526        0.91970630668269        0.66349248526377
C           -0.86428042773187       -0.99218559654490       -0.65141156106298
H           -1.30362814867451       -0.97795901600599       -1.65436704351470
H           -0.78484060420953       -2.03100198009901       -0.33089670995453
C           -1.82564047064180       -0.28508541641158        0.31712876876487
H           -1.47870690201492       -0.41646458977090        1.35444627186109
H           -1.87971909701610        0.79376071002962        0.10883200140089
O           -3.09217869084757       -0.87594685311391        0.14542804638094
C           -4.07852558863565       -0.32747564607388        0.99278658302215
H           -3.81668733846141       -0.51624422351992        2.04442404105948
H           -4.15732788781557        0.75738860112837        0.83573708884150
C           -5.42395158677196       -0.97243147459667        0.68006888051307
H           -5.26606139816219       -2.03376625586633        0.44318892501292
H           -6.07969892402740       -0.90278603931218        1.56101964670739
O           -6.02204194460939       -0.31199149175932       -0.41300930915105
C           -7.23453696344485       -0.90447567383982       -0.81397343555090
H           -7.96764823275224       -0.89483306004765        0.00183896294442
H           -7.61039040575959       -0.31668005905001       -1.64849412085783
H           -7.08001348524255       -1.94166495106066       -1.13373056065936
C            2.80312260679274        1.03472183974563        6.74154117890575
C            1.82302553002340        0.25532777941813        7.43903187864628
N            1.04457185668874       -0.37672774337893        7.99118887989907
H            2.93683144214648        1.98705321743121        7.25305445568041
H            3.74955030647381        0.49576266483468        6.72404599855575
H            2.46489845722531        1.21366429084851        5.72172808888413
46
 energy: -68.735573829490 gnorm: 0.007164313587 xtb: 6.6.0 (conda-forge)
C            2.71214946076195       -3.28951037771742       -0.99812643901982
C            3.88479093325987       -2.79930960048981       -0.42271422430086
C            3.91418639480099       -1.51509351091962        0.07755405904139
C            2.78251452016262       -0.70794996074779       -0.01392960580783
C            1.58051496015076       -1.19711134726660       -0.57162424265087
C            1.57539370974945       -2.51398417139916       -1.05642007190232
N            0.45609108719360       -0.39509368500185       -0.66970537221153
C            0.60254650490460        0.95451521388452       -0.93593676855024
C           -0.32229777640601        1.63931177362901       -1.73986028781917
C           -0.14205765071638        2.97083745295303       -2.04115230331563
C            0.94190380650167        3.68141490499830       -1.52439568252467
C            1.85169683116481        3.04189418530332       -0.70948215661737
C            1.69985115117103        1.68607127817903       -0.42877320644648
H            2.69357255121656       -4.28181885340503       -1.41970213619059
H            4.77266384064870       -3.40934714920650       -0.38916399710931
H            4.81491598951809       -1.11019778136447        0.51011448802913
H            0.69836278179085       -2.90238490729879       -1.54641022223868
H           -1.14964256202820        1.10702395060711       -2.17876330069009
H           -0.84377149511645        3.46086982096269       -2.69696009663343
H            1.08292628896623        4.71988961719898       -1.77550249367211
H            2.70131492577708        3.57013121186478       -0.30784837467256
S            2.88887701030990        0.92620553430304        0.61209035432713
C           -0.86507971598309       -0.98973681384574       -0.66051836441084
H           -1.32068333471081       -0.97429676337812       -1.65532885968538
H           -0.78715281969948       -2.02613581310116       -0.33377903340045
C           -1.81652851418964       -0.27580762112401        0.31709960651525
H           -1.46811860536654       -0.40919604365045        1.35332803289281
H           -1.87412467147127        0.80215920889733        0.10764719776505
O           -3.08034985749834       -0.87116951711633        0.14418465617933
C           -4.07110494100719       -0.33010197436098        0.99363278201076
H           -3.80816123410704       -0.51944533118229        2.04427325374533
H           -4.15813086683093        0.75348193260020        0.83619975526670
C           -5.41408051630771       -0.97976220725375        0.68034525754221
H           -5.25745680311041       -2.04226243728039        0.44640751161503
H           -6.07080886570296       -0.90831281738222        1.56077026863408
O           -6.00823532476457       -0.31957747092546       -0.41516340432794
C           -7.22520348875475       -0.90217187240363       -0.81546513321680
H           -7.95941287612444       -0.88724966945406       -0.00051401757770
H           -7.59663018772007       -0.30990862598089       -1.64875059567074
H           -7.07949740380702       -1.94048204761122       -1.13691935769701
C            2.80619474665109        1.03520590955116        6.74214849686101
C            1.82832602729357        0.24072803469392        7.42818307480893
N            1.03357415500931       -0.36497596219392        7.98682173371602
H            2.93537931064189        1.98354275477877        7.26243049302662
H            3.75441338608048        0.49946370877181        6.72433200303974
H            2.46984249123488        1.22129473696480        5.72317876400282
46
 energy: -68.735512734476 gnorm: 0.016212223759 xtb: 6.6.0 (conda-forge)
C            2.70309184809149       -3.30050097266378       -0.98572790721717
C            3.87638191185588       -2.81113045985630       -0.40607968291577
C            3.90890660194265       -1.52561578901611        0.08450618189955
C            2.78292607687080       -0.70728733903666       -0.02426699295740
C            1.57890701222248       -1.19838235121985       -0.57950656535902
C            1.57069884244614       -2.52278133319447       -1.05120035221798
N            0.46133453188497       -0.39601514867754       -0.70677230827091
C            0.60262987339176        0.95498240796453       -0.94805995900186
C           -0.32975621313222        1.64509190260177       -1.74318508567340
C           -0.15524922369901        2.97723614297544       -2.03597946121733
C            0.92635246056653        3.69048362637850       -1.51248323657881
C            1.83934714720411        3.04996219284911       -0.70585914166904
C            1.70192007522252        1.68627034244374       -0.44050075781323
H            2.68601560763731       -4.29455273248734       -1.40241218018816
H            4.76035960761510       -3.42590151576031       -0.36424987815899
H            4.80771950176908       -1.12448774935193        0.52432827684935
H            0.69132824695651       -2.91219762320838       -1.53546049339525
H           -1.15839300455422        1.11273701478207       -2.17875081352244
H           -0.85736261565345        3.47074281086531       -2.68812127830264
H            1.05904080408877        4.73179535278567       -1.75514980318255
H            2.68302018319971        3.58094133516540       -0.29531098181758
S            2.91090877171286        0.93040657362365        0.56676226243722
C           -0.86422034781000       -0.98568465101589       -0.67224939697019
H           -1.33461287214094       -0.97108553441763       -1.65993252347606
H           -0.78632203889542       -2.02044274741972       -0.34243673761192
C           -1.80651302216963       -0.26923903666806        0.31435217555143
H           -1.45426570634732       -0.40447626313032        1.34875568962926
H           -1.86585927214421        0.80857920837826        0.10662439528709
O           -3.06920995127697       -0.86753293746279        0.14282298274172
C           -4.06219149406621       -0.33285514397566        0.99504541230519
H           -3.79721179222202       -0.52384977863054        2.04451233618577
H           -4.15481476331766        0.75021165756070        0.83904191631159
C           -5.40314591320036       -0.98581208717369        0.67985410458339
H           -5.24629238203208       -2.04886097917917        0.44789833024843
H           -6.06146669595532       -0.91310632453684        1.55924468101297
O           -5.99315277467209       -0.32549275560243       -0.41808081758031
C           -7.21442920013008       -0.89985060721356       -0.81670660727513
H           -7.94868194160793       -0.87916042725447       -0.00167959849480
H           -7.58181044524720       -0.30433103591027       -1.64954223363324
H           -7.07734884425427       -1.93926086163497       -1.13911632713829
C            2.80733381780511        1.04082085782623        6.74587242170502
C            1.80810312651595        0.28374441324495        7.44450169145827
N            1.04600353771140       -0.40561837355197        7.95467687650800
H            2.95311779355712        1.99093995310336        7.25812935751627
H            3.74586216085011        0.48762969327392        6.73419704403731
H            2.47447432694660        1.22458397050825        5.72552702603072
46
 energy: -68.736047963470 gnorm: 0.008028150719 xtb: 6.6.0 (conda-forge)
C            2.70002374284877       -3.30588977546264       -0.97929385628252
C            3.87249893002188       -2.81754111839513       -0.39976888265995
C            3.90622765097379       -1.52897377832997        0.08361044613674
C            2.78237948959345       -0.70933476281219       -0.02809418833238
C            1.57958741447315       -1.19885606247271       -0.58202339902889
C            1.57066213857463       -2.52329140832630       -1.05184965735969
N            0.46235164717675       -0.39474253558271       -0.71019030328256
C            0.60304396203026        0.95716396816619       -0.95217862166038
C           -0.32953232504132        1.64709498904060       -1.74608965666565
C           -0.16127403460682        2.98195032142881       -2.03289679841371
C            0.91851317167371        3.69541049111907       -1.50884288736902
C            1.83503579483192        3.05192450597880       -0.70818968667029
C            1.70037743368452        1.68808726401544       -0.44577687355762
H            2.68108291477209       -4.30218997360432       -1.39091385583720
H            4.75439255917441       -3.43525801228152       -0.35191873098781
H            4.80451496134161       -1.12655927687546        0.52411046624599
H            0.68939763941743       -2.91313969918423       -1.53290959765194
H           -1.15934901224898        1.11430283555660       -2.17893155131657
H           -0.86607473868479        3.47668585596482       -2.68157700460271
H            1.04663765304301        4.73899599553952       -1.74532153844306
H            2.67865972202894        3.58224918294763       -0.29592565082443
S            2.91263234765940        0.93086575302586        0.55792681253365
C           -0.86292052360629       -0.98388131235266       -0.67741603064998
H           -1.33554462720103       -0.96990013632906       -1.66405419019774
H           -0.78417858740999       -2.01901957349825       -0.34932246452736
C           -1.80301498078705       -0.26925120418242        0.31156430332723
H           -1.44819653640796       -0.40539767079223        1.34499314852192
H           -1.86213360609756        0.80909667747958        0.10624779787406
O           -3.06629581848885       -0.86734153401237        0.14216439460961
C           -4.05826039694722       -0.33380263267865        0.99578619267465
H           -3.79243382530100       -0.52631292263524        2.04484829478705
H           -4.15067636134181        0.74966412953506        0.84169324723588
C           -5.39892798219702       -0.98674045286329        0.67917120113782
H           -5.24114450384486       -2.04949157938846        0.44697827986646
H           -6.05824365745614       -0.91431266603326        1.55777248292895
O           -5.98793053280658       -0.32629249089950       -0.41928747217172
C           -7.21026097035591       -0.89921050444948       -0.81706026629274
H           -7.94373877250687       -0.87668351252554       -0.00141044085960
H           -7.57684369641330       -0.30365563092101       -1.65030390774847
H           -7.07522411141397       -1.93892672356404       -1.13893120016033
C            2.80951158408006        1.03811545729916        6.74546603013447
C            1.82021544813719        0.25555071412540        7.42859398147925
N            1.03229314903793       -0.37719624216168        7.96316578050151
H            2.94467710082286        1.98413555912097        7.26816026162972
H            3.75315349691944        0.49441587294986        6.73006133545480
H            2.47780300238430        1.22913051640118        5.72599629713373
46
 energy: -68.736247482652 gnorm: 0.003866019899 xtb: 6.6.0 (conda-forge)
C            2.69342140926408       -3.31519707999855       -0.96688561841057
C            3.86538885639318       -2.82794468747633       -0.38723111560642
C            3.90253649467380       -1.53438766669045        0.08336726984916
C            2.78277824842658       -0.71103128519434       -0.03696473530471
C            1.58042450828427       -1.19937107683341       -0.58845039370553
C            1.56872723309682       -2.52609921493264       -1.05080084262763
N            0.46423173642162       -0.39331464636492       -0.72006316388977
C            0.60391039815541        0.95975293288974       -0.96081950231948
C           -0.33195349454101        1.65055952640481       -1.74942141935596
C           -0.17236006370412        2.98894359540888       -2.02698197466547
C            0.90502154282392        3.70331137409336       -1.50113004131506
C            1.82807818821424        3.05604587048734       -0.71063469029512
C            1.70001870207508        1.69038140773483       -0.45626988378144
H            2.67092778708739       -4.31545198901105       -1.36920154701975
H            4.74335448646848       -3.45073827672056       -0.32817687179197
H            4.80040641791676       -1.13062266655820        0.52415633894963
H            0.68635625195913       -2.91581383024302       -1.53053808593326
H           -1.16168784644852        1.11663878716719       -2.18134845510246
H           -0.88230855280208        3.48573361864286       -2.66882219512289
H            1.02510807802683        4.75062292230860       -1.72664305967634
H            2.67169012825469        3.58574282943018       -0.29690865079558
S            2.91977159542135        0.93282109707975        0.53918475062604
C           -0.86101108644566       -0.98116065666150       -0.68659982043774
H           -1.33745423906557       -0.96642270156527       -1.67130679071253
H           -0.78199967354538       -2.01705682882390       -0.36108181094344
C           -1.79683003098035       -0.26897562294135        0.30710394971832
H           -1.43794557037475       -0.40743521188099        1.33891004237210
H           -1.85617994552283        0.81009250048697        0.10523816084296
O           -3.06064697329342       -0.86684776552285        0.14060089409657
C           -4.05119233944160       -0.33562236355807        0.99668943020300
H           -3.78452930484159       -0.53128569775017        2.04503023801979
H           -4.14360747889255        0.74844773058488        0.84616691814677
C           -5.39130035925417       -0.98857287580733        0.67790223299729
H           -5.23230657611539       -2.05102548911666        0.44559574859160
H           -6.05230752859417       -0.91645183742517        1.55515917908916
O           -5.97834101214693       -0.32804860338207       -0.42161139033770
C           -7.20302612080756       -0.89748935129833       -0.81745028938750
H           -7.93527364187382       -0.87094994205279       -0.00085441138000
H           -7.56808842062387       -0.30187689351607       -1.65136003374301
H           -7.07221216251966       -1.93806093544403       -1.13792277697034
C            2.81257125109411        1.03915246879183        6.74747580601455
C            1.82211552621863        0.24890817410888        7.41991742099498
N            1.02288979762600       -0.37282047835204        7.95474343444293
H            2.94511627649654        1.98194788212799        7.27681355302501
H            3.75651995316996        0.49606186413136        6.73137858248421
H            2.48467090780199        1.23655799032296        5.72787766082700
46
 energy: -68.736468189155 gnorm: 0.003568459881 xtb: 6.6.0 (conda-forge)
C            2.68398805008021       -3.32804107674896       -0.94742826448634
C            3.85579832450342       -2.84185834612586       -0.36841070232389
C            3.89913811899743       -1.54078083976944        0.08224719529686
C            2.78520588616842       -0.71247890231202       -0.05102088008837
C            1.58234009504870       -1.19978237840202       -0.59824233111224
C            1.56590959510805       -2.53032479723781       -1.04807115404859
N            0.46734888685247       -0.39139213391837       -0.73321050762248
C            0.60589180777158        0.96302387353772       -0.97332711451347
C           -0.33602539172399        1.65514185825564       -1.75265175419190
C           -0.18848206407897        2.99826762724702       -2.01680387930782
C            0.88609556936274        3.71401010582768       -1.48901241739638
C            1.81988616363411        3.06189650690905       -0.71434085773385
C            1.70137653288542        1.69364642017767       -0.47212845484330
H            2.65544416934861       -4.33423999581300       -1.33535978241148
H            4.72802054861992       -3.47160306156425       -0.29312014390997
H            4.79728327603701       -1.13490237639529        0.52114369261090
H            0.68325903320388       -2.91981701712803       -1.52798646402522
H           -1.16472554319117        1.11968353230404       -2.18501516712591
H           -0.90659075934888        3.49749606575793       -2.64817539203175
H            0.99471941889757        4.76633576408086       -1.69871753830726
H            2.66422030726356        3.59085386627860       -0.30060216345604
S            2.93183782720565        0.93618614136893        0.51211662085074
C           -0.85788481961023       -0.97735048493196       -0.69937610756545
H           -1.33848969564945       -0.95980787915995       -1.68187951438208
H           -0.77960301219610       -2.01473874577176       -0.37827149379310
C           -1.78853733370689       -0.26935093351935        0.30085023840934
H           -1.42447409818157       -0.41178195169620        1.33045899165320
H           -1.84848424716501        0.81076826812107        0.10412865478476
O           -3.05286387736014       -0.86685022749172        0.13740518759252
C           -4.04178279193404       -0.33917152222226        0.99660991978117
H           -3.77472719186373       -0.53996007317781        2.04400144502822
H           -4.13387788591360        0.74584397810159        0.85182562782870
C           -5.38123411972194       -0.99168153543716        0.67453774293264
H           -5.22080238194304       -2.05385180524138        0.44222711927551
H           -6.04461572558064       -0.91983120623335        1.54986464322715
O           -5.96561866340942       -0.33117938317316       -0.42643647122236
C           -7.19508052492711       -0.89420151980203       -0.81732965589497
H           -7.92469052622976       -0.85960101414721        0.00134840796579
H           -7.55815637449333       -0.29918309156190       -1.65251938472255
H           -7.07222761922307       -1.93674562515760       -1.13434026878831
C            2.81678681959673        1.04105315818233        6.75106299187308
C            1.82002966709716        0.24862425545905        7.41099011367045
N            1.01394697109117       -0.37291199292801        7.93559500779055
H            2.94919742689998        1.97936065658162        7.28844401852793
H            3.75923969422563        0.49523623028516        6.73576909816379
H            2.49548381108794        1.24763850567229        5.73098318870139
46
 energy: -68.736696805354 gnorm: 0.004417208703 xtb: 6.6.0 (conda-forge)
C            2.67201495473739       -3.34297956219552       -0.92212907459214
C            3.84406807762701       -2.85763217752984       -0.34334039912502
C            3.89615581713314       -1.54806090585108        0.08232378807222
C            2.78940146007958       -0.71317133220281       -0.06916860606554
C            1.58462902889363       -1.20011401452599       -0.61195130395308
C            1.56191232476962       -2.53651273370331       -1.04389509943937
N            0.47157241532496       -0.38968468543605       -0.75278993334894
C            0.60822519038350        0.96606770008302       -0.98978125493736
C           -0.34287710786453        1.66066646328651       -1.75560887180298
C           -0.20900151656175        3.00878004140717       -2.00264693677405
C            0.86303800751192        3.72630064792793       -1.47253449312817
C            1.81054721834392        3.06961556363488       -0.71797758156100
C            1.70434938884319        1.69746826846445       -0.49213912365458
H            2.63591460837471       -4.35607255146288       -1.29208010833481
H            4.70914262503966       -3.49500811841624       -0.24833118432504
H            4.79538906313644       -1.14074076482682        0.51782898307508
H            0.68039117807650       -2.92634293902094       -1.52564127115125
H           -1.16996587643224        1.12428469209531       -2.18993370292913
H           -0.93701957826532        3.51056586702376       -2.62094585914331
H            0.95866534368127        4.78361393969289       -1.66414372606153
H            2.65554843639165        3.59866069090440       -0.30552573728441
S            2.94774839144156        0.94055098953505        0.47678924486538
C           -0.85427144704866       -0.97309918163056       -0.71604777173176
H           -1.33988205299107       -0.94976599521549       -1.69592352390422
H           -0.77791386620621       -2.01246936413808       -0.40084494480992
C           -1.77852210700789       -0.27010827995235        0.29318257689478
H           -1.40845866011332       -0.41819838298303        1.31999301371438
H           -1.83985792956366        0.81118804767171        0.10288676316493
O           -3.04293962067164       -0.86765482597548        0.13268823544694
C           -4.03013383536902       -0.34484957027828        0.99603675289870
H           -3.76279504938685       -0.55243931394118        2.04215794946578
H           -4.12196807324525        0.74122173313179        0.85853458738814
C           -5.36913900030733       -0.99612951729352        0.67014043450623
H           -5.20803662034796       -2.05832755157705        0.43825312731621
H           -6.03516989980774       -0.92394367319492        1.54328951036547
O           -5.94982036755808       -0.33554407599245       -0.43275731959733
C           -7.18600411086937       -0.88900569415605       -0.81678097962865
H           -7.91239271569878       -0.84257517696791        0.00430367879652
H           -7.54596268621982       -0.29514187673570       -1.65410834153037
H           -7.07441208547303       -1.93454754851570       -1.12827556095363
C            2.82301253576774        1.04426929478768        6.75629934481911
C            1.81528210713888        0.25157230166092        7.39921262175753
N            1.00225240399778       -0.37621459245326        7.90570901308698
H            2.95648870939039        1.97612077742123        7.30471163847807
H            3.76248138453770        0.49313924897373        6.74324005342694
H            2.51178688992173        1.26389503555072        5.73555343288837
46
 energy: -68.736909091365 gnorm: 0.004288482540 xtb: 6.6.0 (conda-forge)
C            2.65728302578794       -3.35951554188383       -0.89052937152758
C            3.82965018437485       -2.87455973253683       -0.31158209546552
C            3.89284691352087       -1.55583972464814        0.08375395557825
C            2.79444796181537       -0.71355638178272       -0.09031343057704
C            1.58691946242530       -1.20049916511136       -0.62925821050863
C            1.55684288870441       -2.54420634018921       -1.03880480464791
N            0.47676878725671       -0.38816420440749       -0.77913945608444