160
 energy: -234.370018043059 gnorm: 0.009901410458 xtb: 6.6.0 (conda-forge)
c            3.26049206265975       -3.32695899735021        0.11324076252436
c            4.44348724634107       -2.62988136240514        0.27445899707492
c            4.40147073206115       -1.25751633255657        0.44154251842171
c            3.18614411207366       -0.60034875969389        0.45398199574654
c            1.98275124807681       -1.28410213486221        0.27083339378377
c            2.04408229614578       -2.66624741122686        0.09949523368578
n            0.77485062459838       -0.58483267457942        0.24039979310026
c            0.73824250492816        0.64097339843798       -0.43065950705912
c           -0.32972233080455        1.00057038984321       -1.25257140763401
c           -0.37140117861771        2.24096750977791       -1.86407557061213
c            0.66630523688311        3.13922964691553       -1.69290752737495
c            1.75117755883072        2.78830515849744       -0.90841849583942
c            1.78217727976069        1.55519791888082       -0.28446058249760
h            3.28123837908327       -4.39891904273524       -0.01788569752424
h            5.38746233921433       -3.15228149909790        0.27153934741838
h            5.30565594911703       -0.68404968946735        0.57738482653918
h            1.14018658687309       -3.23021832961632       -0.06517428778445
h           -1.15271544255903        0.31859491695133       -1.39186172143568
h           -1.22905721634946        2.50351235315296       -2.46505801610480
h            0.63851912455454        4.11227872301571       -2.15808668736158
h            2.56130942309520        3.48280713166827       -0.75377729405987
s            3.16077025250681        1.14304202762264        0.74995575902348
c           -0.45862198175476       -1.29563960308897        0.50542280813022
h           -0.88633983333322       -1.76166088898494       -0.39029719174855
h           -0.22226379389264       -2.08944152714779        1.21509517044873
c           -1.51995897380145       -0.37730601618383        1.12641746043521
h           -1.81197917042490       -0.74627322172818        2.11666578885700
h           -1.12191186326087        0.63767844936047        1.25307538584113
o           -2.65919343387328       -0.34260066060733        0.28661330798466
c           -3.62711816260253        0.58284343066407        0.71563525357766
h           -3.86414723161589        0.42332687631032        1.77646514666169
h           -3.25041462311778        1.61029609327681        0.59675706120672
c           -4.88223042918024        0.37377537733002       -0.12454569066260
h           -4.64312948343939        0.50460649868550       -1.18965254563239
h           -5.25158803295904       -0.64854365804894        0.02652850056032
o           -5.87109933398853        1.30071515796617        0.26998373311920
c           -7.10470380696378        1.06974749855850       -0.37480442318054
h           -7.47585899337010        0.06321920068760       -0.15672897667131
h           -7.80336729932621        1.81062467067044        0.01050130096212
h           -7.00597267012186        1.18212837724890       -1.46043821045405
c            1.33330133685663        0.24119651934964        3.74607263671659
c            0.60688951443214       -0.98240761030271        3.83226153041404
n            0.03256677843701       -1.97146111044486        3.90281694391205
h            1.27535921854896        0.77008771390354        4.69652968872361
h            2.37475813891444        0.01468089424525        3.51494186757560
h            0.90764403369930        0.86438744428225        2.95960524368027
c           -3.19221643632496       -2.14659376469581        4.08584453779640
c           -3.25062848322847       -0.73735716939063        4.29896051388953
n           -3.28219019787304        0.39496569283049        4.47175983553996
h           -3.80572787740345       -2.65406602472047        4.82899507841954
h           -3.55473216379051       -2.38341276172653        3.08388545845383
h           -2.15166505058920       -2.46615599835792        4.17447490965196
c           -1.98229461841677        3.37549595792670        3.87731894302750
c           -1.04271280741965        2.96737323773522        2.88588130207221
n           -0.29079838881067        2.61608214391092        2.09558564514596
h           -1.46649282444385        3.96871083887362        4.63121028187383
h           -2.75355182782736        3.98325181637288        3.40574419230477
h           -2.42434745479903        2.48704397647180        4.33021135454657
c            2.63808911324365       -4.10509749705940        3.41198678075839
c            3.25850755395096       -2.82163626360924        3.50745190491433
n            3.76691058685813       -1.79994287210048        3.59505518716631
h            2.15368057593376       -4.34226577291463        4.35798211027444
h            1.89534564624025       -4.08610093526092        2.61663891951110
h            3.40498265511209       -4.84629337117920        3.18782199782470
c           -6.03900617687520        1.71192568077377        3.50725942091317
c           -6.42826595037806        0.33850418871834        3.48206741062564
n           -6.73204717634404       -0.76479761313612        3.46511717262601
h           -5.09085290973857        1.79026301661038        4.03910352908786
h           -5.91283853260021        2.05557013168597        2.48045908868654
h           -6.79937161811596        2.30443664541290        4.01260122841760
c            2.63373064538974        4.03361610257243        2.60634039452245
c            1.74653625267201        4.82041102976400        3.40298493819577
n            1.01680985277702        5.44800812675143        4.02585186262137
h            2.05583115422675        3.25927834028054        2.10359428747877
h            3.12242922364740        4.65578899541507        1.85654633449300
h            3.38758902271531        3.56722696968195        3.23702855847245
c           -3.04394248625344       -6.18009534117651        2.46292621376795
c           -2.86344193603356       -6.99221170140427        1.29918528984381
n           -2.72256074043710       -7.63132473771455        0.35962446584731
h           -2.14996237836705       -6.21933383216992        3.08454458292406
h           -3.21945313847685       -5.15117721339314        2.14083083079752
h           -3.90113203493454       -6.54038541614934        3.03186933643578
c           -0.26117383507709        5.70380842002501        0.61796628378858
c           -1.61403472409584        5.52397486570123        1.03039720376778
n           -2.69912194465222        5.37841933281181        1.36718924805455
h            0.28751182532714        6.22325334199296        1.40312329476419
h            0.18778980490386        4.72483311493449        0.44656428149656
h           -0.23457211399897        6.28111891427420       -0.30729394057454
c            6.89200504672516       -2.46570003425338        3.05185860530901
c            6.30691651504264       -3.77127690932740        2.98125086552910
n            5.83481576763162       -4.81170187764904        2.91836730955313
h            6.08781545088703       -1.73494514813144        3.13954792249210
h            7.54110002165735       -2.40386738085318        3.92421249424106
h            7.47126130976225       -2.27046151991466        2.15066237139076
c           -6.93349495274691       -3.46004735632191        1.92182175578384
c           -7.01691175021208       -3.03007785502586        0.56524214166696
n           -7.07554294464640       -2.67766144277216       -0.52345782007774
h           -6.98072429555644       -2.58448231258044        2.57288698345900
h           -7.75518725186910       -4.13658600301681        2.14857648558191
h           -5.98022564568296       -3.96496443358229        2.06973472998677
c            2.78184757158011        7.70344622546153       -1.07095836049894
c            3.34732924882524        6.49933504708357       -0.55562951606870
n            3.79692760989396        5.53378119160963       -0.13438817468667
h            2.55356735102621        8.37897562174520       -0.24777416054557
h            3.48807005396331        8.18066303715245       -1.74791098940635
h            1.86328199388601        7.46847988895469       -1.61280995454806
c           -1.61914306511662       -6.33915058477018       -2.36734202939831
c           -1.08125697726433       -5.13984282685400       -1.81461594077365
n           -0.66221031298321       -4.16720911598951       -1.37647587735499
h           -2.07975992960518       -6.92949093132004       -1.57402709809402
h           -2.36458813392586       -6.07378194741286       -3.11648641836425
h           -0.82197766178463       -6.91547351870279       -2.83472224820675
c           -4.91622036984557        4.28229052227697       -0.57451961743143
c           -4.06252392237524        4.13867594875670       -1.70862193868985
n           -3.37180194185369        4.02597337836585       -2.61470366452548
h           -4.34728627110276        4.75534164293986        0.22882070590022
h           -5.77212213495090        4.90361822783098       -0.83474876160032
h           -5.25773169256385        3.30035121453098       -0.24483912129556
c            5.33926778138548        3.01561504992089       -1.60732916724563
c            4.97680987022463        3.19062218886200       -2.97959909838367
n            4.68880069607763        3.33379626591066       -4.08025757723971
h            5.01249663068306        3.88066429048862       -1.03039347779829
h            4.85446288079505        2.11848089633310       -1.22327307799509
h            6.42015165698337        2.90897357222103       -1.52779978309411
c           -3.78017152373280       -2.75037086916054       -1.39653832518313
c           -3.75283345212556       -3.12838206279401       -0.02404739507582
n           -3.76033351242717       -3.43257284487374        1.08080930711328
h           -4.80423672933934       -2.51327794697499       -1.67943669174776
h           -3.15928959828188       -1.86445849807917       -1.52444518335314
h           -3.40614231494802       -3.55735256468582       -2.02537734638449
c           -1.11089659118052        5.43866575835509       -4.26703267754814
c           -0.46479906392964        6.24528325195173       -3.28615258240723
n            0.05633018427307        6.87722979060417       -2.48310082534960
h           -1.93829989591341        4.90337467434357       -3.79256934047019
h           -1.49523455053955        6.06992917192234       -5.06716235517911
h           -0.40142796116964        4.71918990534052       -4.67471316860983
c            1.00878275692650       -1.98586317287413       -3.03067744369037
c            0.57976484291533       -1.90808859359321       -4.38866416686613
n            0.22556393275169       -1.83466096161654       -5.47664632984649
h            0.91788375781677       -1.00380872369592       -2.56754215676742
h            0.38881562039119       -2.70667979199630       -2.49349880192957
h            2.05026848565676       -2.30261287707415       -2.97986264379952
c           -6.75238429709134       -3.31403053255593       -3.68635137720658
c           -6.02492747154271       -2.16183739133346       -4.12202790060488
n           -5.44537152965417       -1.23970241936117       -4.47192452175226
h           -6.09915384135046       -4.18379190539626       -3.74409802138542
h           -7.07790889512929       -3.16921349686988       -2.65469454800385
h           -7.62151512965258       -3.46562942344799       -4.32323544808590
c            3.25869288884663        0.61856260812504       -5.03704526106365
c            3.37930678837366        0.40637918783227       -3.62556937688539
n            3.46809141415786        0.23250312254160       -2.49808829916211
h            3.59817806344473        1.62960973802875       -5.26305845391156
h            3.87605538563850       -0.10432154684347       -5.57107627482645
h            2.22008192934425        0.49708541461963       -5.34141365581692
c           -2.86093362540097       -2.55250225482581       -6.03788749244395
c           -3.11347586280015       -3.57026493746535       -5.07224662881283
n           -3.33199785662602       -4.38227392761127       -4.29325856603919
h           -3.49204343277985       -1.69282401067683       -5.81051797355863
h           -1.80942385230377       -2.26090202233360       -5.99007529160924
h           -3.09176668899009       -2.92445450112283       -7.03510636643836
160
 energy: -234.226678828443 gnorm: 0.141284551124 xtb: 6.6.0 (conda-forge)
c            3.15852490333706       -3.34172307719902        0.11442068360281
c            4.34998608518954       -2.68556810191963        0.36194242759902
c            4.33991500943090       -1.30999517776490        0.50604556535852
c            3.18573126872057       -0.57275000805452        0.32336526078932
c            1.95619486497853       -1.22532458998878        0.21564829099091
c            1.98015166078830       -2.61522279837197        0.11051629440793
n            0.76654985140856       -0.49813957007449        0.14583127674509
c            0.80411943878987        0.71704127734970       -0.54423040876850
c           -0.21671306339283        1.12758322021220       -1.40140848196939
c           -0.19167038876902        2.38888096599752       -1.96952843921309
c            0.78924521237743        3.31437200119570       -1.66247980971117
c            1.82478981304882        2.90035454184889       -0.84287266780790
c            1.89929898031076        1.57667339973909       -0.45152315582088
h            3.11665479743078       -4.37938656434629       -0.18260499719421
h            5.27107082669161       -3.20269933792128        0.14244854544111
h            5.23588618172499       -0.74416078737332        0.71082616696522
h            0.99111155050611       -3.03147321471833        0.00687310626150
h           -1.00720097333664        0.44404293666798       -1.66543784018841
h           -0.99217838455941        2.51881403090821       -2.68226113732988
h            0.74861139054318        4.33133389480012       -2.02042617776837
h            2.69860926948631        3.50791607807153       -0.67004607257329
s            3.30004803748860        1.17646810250618        0.55750901763610
c           -0.49255595057997       -1.14357403706935        0.45406036809303
h           -1.02210243889024       -1.61779618344588       -0.38088068403444
h           -0.24084535604917       -1.85164140618905        1.24456900554832
c           -1.46528581762279       -0.06641644642085        0.95299447673917
h           -1.54963624898575       -0.38462422385551        1.99876364684764
h           -1.02849681848395        0.93713601139380        0.87068393402941
o           -2.66456062831613       -0.26833904033383        0.22822015354318
c           -3.89153676007392        0.15121757705226        0.77217483124666
h           -4.26915311754363       -0.43000101659382        1.62457098631001
h           -3.82737907048905        1.19566044720797        1.11381709529568
c           -5.02680947058079        0.12708512809700       -0.24541731134272
h           -4.64151093863198        0.21983481476470       -1.27093239841989
h           -5.61625686279852       -0.79059584948738       -0.12377005136947
o           -5.90132800312659        1.20060861387940        0.02935021875369
c           -7.26700751657718        1.07111122050605       -0.30084322992332
h           -7.99637675233668        1.03391866253998        0.51466245290748
h           -7.71206259855242        1.81807078846307       -0.95618095858532
h           -7.37551928949714        0.15024311393820       -0.88497090841677
c            1.41961312647376        0.24349292895834        4.38822708272914
c            0.73974751129586       -1.00653547554800        4.30150072869960
n            0.22327845478968       -2.02623298108892        4.22070339914286
h            1.20863039248728        0.71578218534272        5.34680985783206
h            2.49048121232934        0.04090495458704        4.34869624984179
h            1.09494576977545        0.85567001456441        3.54685180836445
c           -2.95434555710700       -2.02666394179424        3.80494699807754
c           -3.25419931217570       -0.65978377443079        4.08154146959963
n           -3.44669228373998        0.40947230828512        4.44575115807067
h           -1.94400842526985       -2.20918304668226        4.16840643933497
h           -3.72372642228715       -2.65061532748115        4.26337980589734
h           -2.99705638965347       -2.22030446864954        2.73098159756532
c           -2.21410185599926        3.60140906525714        3.62667466664102
c           -1.11300752460279        2.84930415186284        3.12243642650960
n           -0.22103783360743        2.33608071508467        2.61811537285817
h           -3.14173960443811        3.03656426865937        3.54454002195447
h           -1.95801189859713        3.94869812569259        4.62687257419847
h           -2.34127776395258        4.47883736099390        2.99121023475434
c            2.44299732308679       -3.76575382095936        3.36610460873303
c            3.31072811570080       -2.63306931312097        3.43941522543759
n            3.92840539742982       -1.66966687048169        3.45774210012277
h            1.45666447270616       -3.54356823798345        3.77056555930145
h            2.26923373498485       -4.01743308204221        2.32156130540963
h            2.86966732586100       -4.60133171668805        3.92063969976129
c           -6.18101079332260        1.69312430433206        3.38929050436909
c           -6.64280054880569        0.37941307345610        3.70450063601277
n           -7.02457215114214       -0.68420035546646        3.88566941714793
h           -5.69983764278403        2.14882772613860        4.25462067379725
h           -5.45274290878920        1.56922640839786        2.58766471567111
h           -7.04742345457698        2.33526916953014        3.24240870706063
c            2.63306025315488        4.05065342468952        2.63209319242372
c            1.87988314203187        4.77466557091314        3.60643057151256
n            1.14792216042707        5.29992230608243        4.31543016527945
h            2.08015749379663        3.13870744625252        2.41079359628340
h            2.66402004760335        4.59240705793045        1.68675672669702
h            3.59490806551228        3.74554291919551        3.03871980467308
c           -4.05038314568344       -6.13982541466549        2.38718076479769
c           -3.31302885734837       -7.01685995473433        1.53071976849068
n           -2.84798275449998       -7.73467475709190        0.76943036347752
h           -3.50586005090475       -5.95188470426281        3.31201717085570
h           -4.14701917231726       -5.19826942616609        1.84187742047149
h           -5.02514666398842       -6.57712538044485        2.60370780845305
c           -0.55383552234674        6.63098927120995        0.43926634059902
c           -1.69741055231948        5.94298917274055        0.94082787359488
n           -2.67207122058839        5.40553968290955        1.21140909628849
h            0.14588929272053        6.85339045280653        1.24442061797645
h           -0.15152587831730        6.11780595040728       -0.43487865536137
h           -0.83170434327121        7.66044759564944        0.20881891118540
c            7.05306939967207       -2.47385083376659        3.26563512368911
c            6.50960068651340       -3.78602208496195        3.07937352027778
n            6.02673914370954       -4.78192623830754        2.78896480853622
h            7.01229013752637       -2.23140642610842        4.32769481455755
h            8.13028644611482       -2.49104539263282        3.10608371178011
h            6.48808264086001       -1.79961626603458        2.62375642968252
c           -7.10520360873416       -3.92405494321154        2.43370272640957
c           -6.99455520437961       -3.39611468732781        1.11416629250074
n           -6.87145065892198       -2.96863042048470        0.05822830957808
h           -6.69253494776910       -3.18133654214862        3.11985477975618
h           -8.10153537950482       -4.32294443018097        2.61400985919283
h           -6.52076956790526       -4.84230626719322        2.46186711106827
c            3.14942717214330        7.46395261141037       -0.68510986057036
c            3.64969576573554        6.15117946424023       -0.43696660873633
n            4.10791800207169        5.15761949911918       -0.09822160195190
h            2.07669668038467        7.41682333190197       -0.50314235122685
h            3.74670447439417        8.15520258422549       -0.09334619062464
h            3.24848290507668        7.74699800451575       -1.73518048534013
c           -0.79028724747529       -6.57623692455046       -2.20030817162561
c           -0.85691717704495       -5.16572336087795       -2.00237229834660
n           -0.86764707796533       -4.03436691091262       -1.81934058012334
h           -1.57365270702855       -7.06501778756883       -1.61940368242611
h           -0.74749549553832       -6.80676764765453       -3.26442782255558
h            0.04319157438165       -7.01894293780473       -1.65681068982459
c           -5.15502375196532        4.70342871788359       -0.45107238539438
c           -4.32082419164563        4.29622359747584       -1.53454177984478
n           -3.56103700565916        3.99822974485728       -2.33747758889423
h           -4.48918168905770        5.17610164646053        0.27422320704827
h           -5.88609305349744        5.45103967795308       -0.75595053386622
h           -5.70944157292818        3.82461156805542       -0.11967335983674
c            5.20622883311191        2.63133598466256       -1.97307194282611
c            4.76304028356097        3.07421342870286       -3.25859575787440
n            4.42320638110625        3.47943681714966       -4.27604556597666
h            4.51209266562683        3.10327766534379       -1.27780911890902
h            5.06336243138675        1.55662550017089       -1.86365929893890
h            6.21261230286433        3.01013342679285       -1.80069999069444
c           -3.63550469050779       -2.65077066025995       -1.51788455316083
c           -3.60433907596354       -2.97796441699656       -0.13248059188422
n           -3.54061527325570       -3.30460509081196        0.96412405991917
h           -4.62770661973227       -2.81072986150470       -1.93609798009708
h           -3.58061251324907       -1.56443477860716       -1.57752061660426
h           -2.87345508820985       -3.25697827396222       -2.00609409142227
c           -1.36425927087388        5.68257305259727       -3.71461577028337
c           -0.29942420732729        6.39321674525518       -3.08906690227485
n            0.53233168362381        6.88484892210865       -2.47075938484446
h           -1.72622766515432        4.95313476898979       -2.98444667789031
h           -2.20621571523670        6.34128763547857       -3.92347244227188
h           -0.99019363728927        5.15408392902340       -4.59095404450625
c            0.58458348705696       -1.54552028335797       -3.59282730238990
c            0.66280386638070       -1.73360636229671       -5.00447116513091
n            0.65881225868836       -1.94652357779404       -6.13106133696571
h            0.13308588649773       -0.59160200518232       -3.32194412012353
h           -0.19249306929773       -2.19692378265573       -3.18746049489691
h            1.57340643714798       -1.62169647736060       -3.14112894841003
c           -6.47236310708600       -3.74639960206889       -4.10028215757812
c           -6.23050697918093       -2.33933019642806       -4.00963006514697
n           -5.95225461679986       -1.22989027435944       -3.99054279313849
h           -7.02268870540694       -4.05859636047840       -3.21360043972343
h           -7.04734336794260       -4.02670499428515       -4.98463538887943
h           -5.50590325085453       -4.24096965136988       -4.17341053917911
c            3.88242332457295        0.36261013192646       -4.97648720649115
c            3.58430071593353        0.07492172985408       -3.60528627965580
n            3.31944919844908       -0.14124908942792       -2.51329130390830
h            3.09969928074189       -0.09523074010916       -5.58169233956765
h            3.90025051489284        1.44093721708999       -5.13704861623267
h            4.84076785273666       -0.08656940500348       -5.23324207481339
c           -2.53684961693138       -3.03985333676412       -6.41165770579944
c           -3.21245520472491       -3.70453770135305       -5.34684198344572
n           -3.70459496800200       -4.37005767022126       -4.55386374399240
h           -2.61348631715665       -1.95702139163800       -6.30848326446833
h           -1.47593778574513       -3.28778265878612       -6.33428430734855
h           -3.08460037653380       -3.24902990599071       -7.32942245107112
160
 energy: -234.249388936055 gnorm: 0.122018515754 xtb: 6.6.0 (conda-forge)
c            3.03357683200817       -3.23462150007016       -0.09078707251322
c            4.26209831387380       -2.66226939940488        0.18222239567351
c            4.28043818280487       -1.29240073495792        0.37246309554431
c            3.13279087206936       -0.53702530301216        0.22632518956008
c            1.88948472991526       -1.13534485646604        0.01320571474700
c            1.86700617373321       -2.50526559591033       -0.24419595727105
n            0.73421471337400       -0.35475028793162        0.08356967743591
c            0.73817875356565        0.85007608059471       -0.62540058764484
c           -0.27992925445327        1.32566579149619       -1.45163810818233
c           -0.21640419444239        2.59628551728027       -1.99546666383654
c            0.97212924958025        3.29758171462326       -1.90283933139766
c            1.97995122447102        2.85884502716293       -1.06181381498213
c            1.89136310712473        1.61789861279579       -0.45928418537538
h            2.94648945875789       -4.28117290417301       -0.34350990708136
h            5.09892046691072       -3.33091841750876        0.05323958948440
h            5.28831205751495       -0.92913649466169        0.50321992242867
h            0.93818878825052       -3.01102480329212       -0.45327144459702
h           -1.11479803675215        0.66049555657173       -1.60114606095701
h           -1.03861982726602        3.01237414273958       -2.55806354969093
h            1.09140891112469        4.14726131038530       -2.55690748025181
h            2.86771464937232        3.46052681765443       -0.95038844664134
s            3.18020920975476        1.17352650280888        0.67288950650785
c           -0.54491614372949       -1.02892311742762        0.16264891641412
h           -0.89066644459285       -1.35756903909090       -0.82471185076830
h           -0.44717638456131       -1.88977500164758        0.82522155853169
c           -1.60823663787611       -0.11545082091648        0.78740887875331
h           -1.72916311745728       -0.54368289698789        1.78940609300305
h           -1.30245257051068        0.92192199479194        0.97457441125447
o           -2.79359789119738       -0.21291467094334        0.01945697733716
c           -3.77294904721605        0.59318079371386        0.62647121976314
h           -3.94142248948616        0.27937138307492        1.66576363556058
h           -3.50420521845110        1.65877020153025        0.56328480175896
c           -5.01502753619746        0.43331061188935       -0.24335797244982
h           -4.78857015274610        0.78281261030655       -1.26085689805395
h           -5.31751353107016       -0.61629553740986       -0.34925327463290
o           -6.11431901154457        1.11658448047249        0.32004916872904
c           -7.33343197663650        0.89700935024131       -0.35554550447070
h           -7.83973359896042        1.85978900994898       -0.23255655673628
h           -7.14832024504369        0.65397740230756       -1.40060975124272
h           -7.94524448203914        0.15147750497150        0.16488292025779
c            1.50187623498845        0.45312724197748        4.96434185644595
c            0.62385728317224       -0.65540275559845        4.78391543935896
n            0.00720883277895       -1.60327751186157        4.59863286417930
h            1.76608498167726        0.58248863505941        6.01310835124526
h            2.44325119667386        0.20001257877165        4.47535394228583
h            1.04577277986935        1.33535278226682        4.51519849041619
c           -2.99004365441706       -2.08631730721190        4.02777142826599
c           -3.24721190554576       -0.68323586090567        4.02551008357372
n           -3.40181395551144        0.44029232436701        4.18919708595032
h           -3.06398870480760       -2.52643181251861        3.03427836799905
h           -1.99744842699376       -2.14084177798752        4.47855372968728
h           -3.65556544319812       -2.61508931257021        4.71348526461610
c           -2.37045273267434        3.40272173305354        3.74863011920356
c           -1.16561798510926        2.72231320317737        3.40549138089575
n           -0.15073446374959        2.34333729083688        3.03167772837969
h           -2.03256981551072        4.41774161209320        3.95326959700153
h           -3.10053271695067        3.35652907848551        2.94151360513276
h           -2.85599015912505        2.94817210344391        4.61321511309010
c            2.88974931963726       -3.99900512722640        3.37140440776790
c            3.53635026291542       -2.74328864900470        3.58678480554082
n            3.97243153300778       -1.68669982940264        3.64559430605817