163
 energy: -251.546290714112 gnorm: 0.000779639849 xtb: 6.6.0 (conda-forge)
C           -3.53561000038290        0.97471000003467        0.77917999778462
H           -4.57497249332191        1.24672732362630        0.80353191242637
C           -2.53706462377311        1.58398694178622       -0.01113469039131
H           -2.67734061600837        2.40235512252871       -0.69393021289219
C           -1.29330604668255        0.96294967616182        0.29616107918591
C           -2.92134263152742       -0.01937954623927        1.57604882326797
H           -3.41373506766416       -0.63636279098997        2.30494800697680
C           -1.54204009015227       -0.03030312906000        1.28379692430953
H           -0.80488654818495       -0.67132705793427        1.72895402604648
C           -3.93070383209793       -1.41987037080167       -1.76874581982788
H           -4.99667291015943       -1.28845743415884       -1.82975790659733
C           -2.96187782450681       -0.71478044412489       -2.51752395539806
H           -3.16156821356046        0.05784137832769       -3.23698175435059
C           -1.69138655013077       -1.23886978283028       -2.18965622461434
H           -0.74662415776268       -0.94513449396835       -2.61059960937572
C           -3.25590769029573       -2.38111960965065       -0.97894880788888
H           -3.72000204033245       -3.10063658034874       -0.32887708681699
C           -1.87447062202802       -2.26863278863841       -1.24128114299103
H           -1.08993716938376       -2.86544557267941       -0.81429303004071
Fe          -2.58406922832869       -0.45319882026365       -0.47315883962130
C            0.01766818237608        1.27314467132312       -0.34531035228896
H           -0.15273647574766        1.68172144788888       -1.34310713367830
H            0.60245641556424        0.35636575781081       -0.43180309588313
N            0.83748221211672        2.27561265652439        0.40903902623904
C            1.17580028101263        1.75205623122163        1.74169242775506
H            0.26548273688239        1.57767360878481        2.31104049408133
H            1.71730704597946        0.81310302090938        1.64115573090585
H            1.80085883849956        2.46520833708691        2.27412008911267
C            0.07836888660366        3.53075953985744        0.54382728534758
H            0.68237266190006        4.26862864982003        1.06521246099433
H           -0.17249064745733        3.90290630556200       -0.44785056677689
H           -0.83440479178284        3.34875949023926        1.10646210217029
C            2.06988893450458        2.53484557028482       -0.35306572256345
H            1.81218144925662        2.94017703570262       -1.32986663451754
H            2.69122637363985        3.24968875404626        0.18168567226357
H            2.62591400493451        1.60814396605286       -0.48319696940513
P            2.28922829100394       -2.41118706274606       -0.09897426947003
F            1.69793813543333       -3.90581319371841       -0.30758744643834
F            1.60800322836306       -1.93009985204932       -1.48318382632413
F            3.63487149197618       -2.83347187606932       -0.90797367888283
F            2.88886653814968       -0.91420801808596        0.11314056456358
F            2.99505341067610       -2.88334018631656        1.28831549368660
F            0.96823467690635       -1.98990317396199        0.72301990769741
C            5.86605402694399        1.36818889819107        7.25446611037496
C            4.50578613845160        1.54078082467486        6.84209966663125
N            3.41792084614926        1.68450919626428        6.51524613529296
H            5.91419707580249        0.61993420397734        8.04457659745004
H            6.46114267495290        1.03399412292746        6.40572387564467
H            6.25588822835318        2.31615436631753        7.62328235447309
C           -1.33556519776595        0.51050129274316        7.76613244642353
C           -1.71756511095900       -0.68584759011666        7.07818800978905
N           -2.02500441006641       -1.64249234930780        6.52917130809327
H           -0.45631294307084        0.31139506465210        8.37742663084330
H           -1.10230080607746        1.28856991972827        7.04074093704679
H           -2.15475408887682        0.84036435989283        8.40368573698965
C            0.38320958806580        6.07252078316806        7.54840345949978
C            0.04817948564525        5.77275526091649        6.18922568631271
N           -0.21907687229807        5.53080011545629        5.10262273685533
H            0.80813244572746        7.07390184907431        7.60522988492409
H           -0.51446504498026        6.02139686701704        8.16342635777088
H            1.11514617030550        5.35039271815552        7.90811506817517
C            2.81220642733792       -3.30245113964959        4.77819840542211
C            4.14430591383633       -3.31153931494894        5.30242207002127
N            5.20771191108944       -3.32200550495152        5.72735343027296
H            2.27212287777584       -2.44317173342758        5.17191826177741
H            2.85288842639642       -3.23671726441582        3.69158607518770
H            2.30272300621313       -4.21990942595259        5.06849386148219
C           -5.14340478287571        3.66086509605426        4.91662521986147
C           -4.88176881224309        4.08997260171033        6.25750232457022
N           -4.67037288697010        4.42821226905819        7.33111682291268
H           -5.19441734647790        2.57324180678463        4.88885967807992
H           -6.09089346085577        4.07844754478785        4.57903127589075
H           -4.34326815788839        4.00450552464952        4.26316980281943
C            4.93777331216646        5.99197499127957        3.77841158390693
C            5.09938425373648        6.28608958818280        5.17067357898687
N            5.22431145915551        6.52220968715991        6.28432695351109
H            3.90876331616044        6.19327160065911        3.48523789926456
H            5.60954665890233        6.61991337329690        3.19453925871278
H            5.17170233317932        4.94311408871249        3.60081761745062
C           -2.14044923227418       -5.38360408637168        3.36770415986591
C           -2.25797558884876       -6.54439913227648        2.53735403679590
N           -2.35492396630529       -7.47340375632951        1.87461754889351
H           -1.81038732875559       -5.67940899774850        4.36246194038258
H           -1.41412434197583       -4.69885749867562        2.93254719624005
H           -3.10706478502339       -4.88796159820587        3.44159449556040
C           -2.37232070466518        8.06415807340589        1.08043703343363
C           -2.44146039395087        8.07471565807073       -0.34971889759982
N           -2.49249016908453        8.08254050403034       -1.49371863447154
H           -1.32926901625054        8.04760200301956        1.39328246183933
H           -2.85533022747550        8.95791021368190        1.47337346103113
H           -2.88115458491295        7.18098520738458        1.46324981101187
C            6.53094814409067       -1.50110306257919        0.98780409161819
C            6.37598076915287       -0.18615963442050        1.53026022278236
N            6.25630508673334        0.86803010155127        1.96069318778768
H            6.93599255087566       -2.16701340941099        1.74806850865234
H            5.55857530598827       -1.87188932582121        0.66423109257943
H            7.20395968908233       -1.46658771026790        0.13245430875803
C          -11.20333264957073       -4.09245662643414       -2.03203916765208
C          -10.09002047473397       -3.39048559249178       -2.59879293107265
N           -9.20173259593385       -2.82708732998030       -3.05052940011642
H          -10.96303969959746       -4.39055759991290       -1.01225489416112
H          -12.07689542471182       -3.44178874084152       -2.02452455003822
H          -11.41534628632072       -4.97845939511762       -2.62925436509389
C            2.28763635854631        8.95180561782728       -2.76268111073459
C            2.56916608191295        8.31726011890428       -1.51085089616848
N            2.79193679342905        7.81206137908782       -0.50774873204273
H            1.66909733285169        8.29222629158614       -3.36943581529584
H            1.75703316965142        9.88654445772925       -2.58608579299278
H            3.22124542000783        9.15300498613931       -3.28651767890669
C            1.13221406022487       -6.79249414875939       -2.17949523272951
C            0.86875094469220       -6.26188247023554       -3.48241603248239
N            0.65811593876631       -5.84235911995675       -4.52694851603517
H            1.97738203885776       -7.47742669758261       -2.22849118399112
H            1.36860805954724       -5.97398384261209       -1.50073813836550
H            0.25286194038515       -7.32124667717587       -1.81510396754382
C           -6.54622038123096        4.64547901813406       -2.28471294806544
C           -6.67260353730201        4.97546701817670       -0.89673642350646
N           -6.76962783171603        5.23291656001817        0.21484770568387
H           -6.51177589899476        3.56295178315784       -2.39969314428437
H           -7.40021912307995        5.04137537544979       -2.83257260092878
H           -5.62968592331361        5.08195882194012       -2.67872602541480
C            7.02149639980084        4.43167023649475       -1.62983800516674
C            8.03175192257047        4.77275196976369       -2.58653600059633
N            8.84024591558957        5.04853344546830       -3.34919912807495
H            7.45937379737915        4.41128316216884       -0.63290660583450
H            6.22490335170021        5.17304445239555       -1.66642552212477
H            6.61553986477797        3.44936385291025       -1.86695006297741
C           -4.67053335615778       -5.30944154876349       -5.12321236477022
C           -4.94736313089994       -4.83849353567396       -6.44694231588454
N           -5.17119773552731       -4.46055174861218       -7.50446957358425
H           -3.69569540526003       -4.94391047797879       -4.80400219610942
H           -5.43632384230307       -4.94378719602953       -4.44059042355685
H           -4.66704696605158       -6.39857830242867       -5.11843977938697
C           -0.99199539685652        4.37022905702027       -5.01950909481285
C           -0.49133590230347        3.92578239832702       -3.75960014075566
N           -0.10036766821729        3.57085053735730       -2.74294089903926
H           -1.43764394748495        5.35754581968417       -4.90413490457589
H           -0.17548114713093        4.42104656729851       -5.73835573066139
H           -1.74518953287898        3.67042355142973       -5.37950575392649
C            4.01593638727692       -2.20231835152592       -4.32258973993975
C            5.01834951921271       -1.19681890104065       -4.14544495124666
N            5.81993253459002       -0.39056861831416       -4.00890890194436
H            3.56216864755169       -2.42607709250023       -3.35817313985784
H            3.24972680671367       -1.83935360803800       -5.00504219012355
H            4.46823411247142       -3.10650625313089       -4.72647233604135
C           -7.32582219542644        0.10239989098454       -7.38604677587592
C           -6.41640281578143        1.09531925739008       -6.89891359888397
N           -5.69020505434314        1.88941743702901       -6.50765165722213
H           -7.49906036926593       -0.64209584806855       -6.61002946279757
H           -8.27002427032727        0.57434947761023       -7.65465232706896
H           -6.89966498894638       -0.38327704436941       -8.26292805936675
C            5.22034619596343        3.53844627748293       -7.13076198798768
C            4.59226740582516        4.54259761222178       -6.32635583306966
N            4.08728833026983        5.34643466794242       -5.68617157172450
H            4.57674443142850        2.66101638420734       -7.18271642557910
H            5.38723547877433        3.92808295261477       -8.13409186024303
H            6.17460097759691        3.26171342797276       -6.68430263740713
C           -1.18806417931463       -1.47031895703444       -7.54639938100248
C           -0.22742548721317       -0.41498350412252       -7.66349532050455
N            0.53979121373689        0.43026439146069       -7.75565048981747
H           -0.85561357315570       -2.18352851489841       -6.79311095254341
H           -2.15039501663077       -1.05379478664165       -7.25243917039745
H           -1.29097207704897       -1.97876689205596       -8.50406288657858
