21
Ferrocene_p1_gas.log	Energy: -1035771.9423282
C         -1.71014        1.02415       -0.62531
H         -1.69503        1.93544       -1.20515
C         -1.65750        0.93074        0.80012
H         -1.61434        1.75955        1.49165
C         -1.68167       -0.45633        1.14591
H         -1.64414       -0.86446        2.14529
C         -1.77142       -0.29757       -1.14935
H         -1.78217       -0.56400       -2.19646
C         -1.75351       -1.20752       -0.06082
H         -1.75012       -2.28518       -0.13798
C          1.65528        0.77757       -0.95413
H          1.61031        1.46898       -1.78276
C          1.69775        1.12423        0.43281
H          1.67660        2.12417        0.84096
C          1.76542       -0.08413        1.18386
H          1.77429       -0.16131        2.26162
C          1.69277       -0.64785       -1.04696
H          1.65919       -1.22760       -1.95790
C          1.76295       -1.17243        0.27314
H          1.76482       -2.21948        0.53965
Fe         0.00004        0.00341        0.00021
