167
 energy: -265.703245258139 gnorm: 0.000397544059 xtb: 6.6.0 (conda-forge)
C           -1.69275000736076        4.15257999875185       -0.62190999775468
C           -2.71749446499830        4.02019445177625        0.31324166272643
C           -2.77308073494519        2.88918565824829        1.09392459243368
C           -1.80724302167314        1.89002153291764        0.95755787017636
C           -0.76878551857138        1.99712794516133        0.00821574850366
C           -0.74761654904869        3.16449512791711       -0.77763376924784
N            0.19258624022904        1.02280501507807       -0.15934714717752
C            0.45087424754259        0.04548122413899        0.77742045396037
C            1.66817065567477       -0.65763113101437        0.75239113287552
C            1.92519904343271       -1.67045831279548        1.64657632137254
C            0.98152341899085       -2.03452862121900        2.60692471771677
C           -0.20357498415819       -1.34121617291270        2.67795073345113
C           -0.47035557661010       -0.30046986221949        1.78767562977548
H           -1.63031968209051        5.04135308621191       -1.22879347142765
H           -3.45475723333958        4.79666163763059        0.42972677661853
H           -3.55450958531270        2.75654123727242        1.82718467687379
H            0.03633747998894        3.31241700437351       -1.49928806435774
H            2.43261782708919       -0.37585443450653        0.04760381902635
H            2.87092176801895       -2.18588207358691        1.60272944403001
H            1.18238019557993       -2.83975350945537        3.29459132112908
H           -0.95095302839096       -1.58709186801292        3.41559765795085
S           -2.00291282014393        0.49405728011339        1.97716126512862
C            0.90963493910392        0.98676410696757       -1.42298520732802
H            1.18345294993225       -0.04787161186739       -1.63434304426003
H            0.21385556248070        1.30427905584695       -2.20045473835068
C            2.18800947842656        1.84336786542188       -1.46081680860547
H            2.27008898207471        2.33753148668139       -2.43946966223454
H            2.15923608371340        2.61584207500656       -0.67871862404240
O            3.30713766199025        1.01054569230944       -1.26341539089884
C            4.53037284294542        1.71716232117167       -1.27191091008591
H            4.70228120262102        2.14823521528251       -2.26772682832851
H            4.50250979484228        2.52659457726032       -0.53043833309201
C            5.66057422812716        0.75946678970750       -0.91952127409198
H            5.50140011418213       -0.19579522224520       -1.44032300631757
H            6.61744745748292        1.18843354280702       -1.25328445889668
O            5.67992516188951        0.56246710897461        0.47579202997234
C            6.70397195995145       -0.31105449437935        0.89175757329217
H            7.69207135456887        0.09464400206013        0.64133303252435
H            6.60765268145410       -0.40592901527166        1.97097634547121
H            6.59743108394544       -1.29630768975960        0.42431356496402
P           -1.90877637664084       -2.20645184750002       -1.44630091563301
F           -2.02124297293855       -0.62381009016453       -1.10538406853517
F           -0.29287430794965       -2.09561569131554       -1.41037060635272
F           -1.89500706164569       -1.85682727293089       -3.03172388025693
F           -1.80099046137392       -3.78672885507776       -1.79347808832771
F           -3.52845152255917       -2.30989361473690       -1.48445827752496
F           -1.92374421382493       -2.54908222611392        0.13771294219262
C            1.45382956653733       -0.32196830707590        7.77058096567888
C            1.36005407823232       -1.13477776271266        8.94636752928256
N            1.27702308001997       -1.78230061007709        9.88714018304144
H            1.65725220894730        0.70879842293780        8.05742641366496
H            2.25854788453464       -0.69011077113899        7.13593491630666
H            0.51285045162019       -0.36617582576544        7.22473911775436
C           -3.28151332583439       -3.76262332441427        7.60216331115439
C           -2.08482803802136       -4.36376063597668        7.09346749887472
N           -1.12711192375071       -4.83998904822755        6.68490752601425
H           -3.87280705798528       -4.51640900396423        8.12034076487407
H           -3.01722862034652       -2.96707007645452        8.29787241255445
H           -3.86022466398796       -3.35175927320618        6.77547181066146
C           -1.30318445292262        5.82178721455692        5.00576032077867
C           -1.36043171857034        4.55793426362919        5.67568996461108
N           -1.40862991736842        3.54735363420207        6.21220651291325
H           -1.03069906036973        6.59952785016159        5.71795402611002
H           -0.55768703946871        5.77970100288493        4.21315909499934
H           -2.27650882465472        6.04921009358201        4.57354896313355
C            3.76585822559673       -5.91737092365572        7.23025401820786
C            4.31498889459168       -4.90489933873047        6.37922813396147
N            4.75496612527289       -4.09569338831413        5.69902253084709
H            4.57234373614273       -6.52572370155008        7.63774054095630
H            3.21584176578108       -5.44720798360830        8.04443931837896
H            3.08886677897753       -6.54695414319049        6.65419600300252
C           -6.42633607697279        2.00502493773219        5.49900535625122
C           -5.82088325220674        2.41687365065942        4.26981753366888
N           -5.33614181857821        2.75395611403298        3.28882241107305
H           -5.67472090998365        2.00462711594820        6.28747752985890
H           -7.22709028012642        2.69612065359484        5.75921568656599
H           -6.83401556024038        1.00158258017206        5.38417606007427
C            7.59767603088117        4.58543340138536        2.96728993763616
C            7.86492698256207        4.92896110338570        1.60268200275159
N            8.07909095056885        5.20347096967558        0.51186791329119
H            8.47966037527326        4.11868542458366        3.40399948696609
H            7.34702614584602        5.48687709434118        3.52503036179616
H            6.75946618488928        3.89142118375199        3.00754272132518
C           -2.43146265999363       -5.87597626218124        1.46882268733417
C           -1.84697398717750       -6.98843534374887        0.78310936167692
N           -1.38199316491048       -7.88198207074740        0.23857677057811
H           -1.95689788729163       -5.75791644362878        2.44125497713419
H           -2.28383029133648       -4.96999615699509        0.88149282478486
H           -3.49805277870027       -6.05013005376138        1.60212983046664
C           -2.07372621090767       11.17528915354959       -0.14123513962070
C           -1.77177731967003        9.94640326419186        0.53058631933499
N           -1.52930033995732        8.96461135779342        1.06720180223008
H           -3.11117349606578       11.44643339247003        0.04983489982616
H           -1.41722375005229       11.96282660962914        0.22667556110647
H           -1.92704281891211       11.04782674184322       -1.21296853070456
C            8.69875491074780       -4.90425130277744        2.64731174144414
C            9.51528732190422       -5.90672323774027        3.26415316035718
N           10.17059841080078       -6.70606955087714        3.75691005189869
H            8.63343434291409       -4.03655696659551        3.30210350384048
H            9.13952827893361       -4.61239265870681        1.69512701544770
H            7.70014635327386       -5.30349958313585        2.47636124192490
C           -6.49161776285331       -1.74974874906556        0.40943355799005
C           -6.27590651144085       -2.19817515137443        1.75157208895848
N           -6.10595166882272       -2.55291428843727        2.82708055450856
H           -6.61498612135630       -0.66757380012031        0.40221167032612
H           -5.63026226795217       -2.01606373807437       -0.20264720029627
H           -7.38434407871874       -2.22403294390387        0.00437534820121
C            3.19706543637162        7.69430789030079       -0.40497186333654
C            3.14322293257955        6.90522447768258        0.78878000664277
N            3.09713408927335        6.27216370772543        1.74175462901127
H            3.24828397097305        8.74934359312172       -0.13948347825445
H            4.07935279014375        7.42067519539833       -0.98238159001538
H            2.30343031024400        7.51200814389678       -1.00017770897962
C            2.91677881789552       -6.36715308169363       -1.98377764381963
C            4.08728546326398       -5.67769654066144       -1.53092261079644
N            5.02625878022283       -5.13095919309438       -1.17000923426063
H            2.74466111695987       -7.24217551384124       -1.35844828514999
H            2.05591180958921       -5.70243828049686       -1.91959685123052
H            3.05658146902692       -6.67996967148875       -3.01754073382790
C           -7.22315343542847        6.81683910857550       -1.58755516015712
C           -6.22279571372176        7.70001295163735       -2.10828976962488
N           -5.42481211617942        8.40785669910619       -2.52445359915287
H           -7.19793231216555        6.84055919131737       -0.49886574306131
H           -8.20472915977199        7.13575684027994       -1.93600733119903
H           -7.02711279120696        5.80244530002768       -1.93238665174075
C            8.44058651705937        4.40541271191165       -4.48631238902725
C            8.76977025827664        5.07693107326897       -5.70831728003189
N            9.02515381031573        5.61304106918842       -6.68736452990538
H            9.30205309638023        4.41834226292897       -3.82017975244426
H            7.60577409157273        4.91467775527788       -4.00670369836916
H            8.16227441846750        3.37491129713976       -4.70360159444331
C           -2.43781940374889       -6.16787949925010       -4.36523044365867
C           -3.43050433673796       -5.50975739463226       -5.15973977618067
N           -4.21974665625659       -4.98179768498358       -5.79979054540363
H           -2.12579119669851       -5.50272571714141       -3.56064167465550
H           -2.85488010119369       -7.07886043689658       -3.93900645671410
H           -1.57813374593747       -6.41476675508848       -4.98641592325982
C           -2.34142660372101        5.61171604663267       -5.83855493142009
C           -1.71746283277864        4.32624783159839       -5.92949115769330
N           -1.21556205610991        3.29974513361913       -6.00397913913842
H           -1.63767436169067        6.32614941010191       -5.41346338211452
H           -2.63889500400759        5.94224433254606       -6.83281804365991
H           -3.22168472299615        5.54170362673056       -5.20106736529613
C            5.26830458782420       -2.55430944813346       -5.94480980225076
C            5.33939920544845       -1.13021759561154       -6.05798301197872
N            5.39755453989832        0.01034486416721       -6.14885048991379
H            5.76919635502097       -2.87285626748888       -5.03181731791741
H            4.22195810976829       -2.86204159232576       -5.90873474677925
H            5.75106246796495       -3.01300246150302       -6.80649370956814
C           -4.77247483560216       -0.22123112521456       -4.47541512247210
C           -5.09263837863590        0.99933679313504       -3.80117450290436
N           -5.35298302944772        1.97622737297608       -3.26343961053408
H           -4.04093168685393       -0.77570059896058       -3.88830114421485
H           -5.67097064156665       -0.82569250937672       -4.59015220347324
H           -4.35473349806436        0.00123763527242       -5.45580577133474
C            3.60378696780965        4.60073937405737       -7.40708607618145
C            3.32630583721880        5.21966392220296       -6.14630659770929
N            3.10014937305118        5.71716348456905       -5.13993193931601
H            3.04591592341338        3.66843091014226       -7.48350902614289
H            3.30732039417944        5.27056626897164       -8.21322532295278
H            4.66948013409261        4.39010705495865       -7.48447647177093
C           -0.03681300757184       -1.76674431177765       -6.04310825930461
C            1.09433838806337       -2.63464421069335       -5.94747256439735
N            2.00238130036223       -3.32957463373622       -5.87793708761690
H           -0.58629937950506       -1.78492242439764       -5.10281146788516
H            0.30226570678370       -0.75203181457992       -6.24529766546320
H           -0.68869198135462       -2.10254716788507       -6.84837648320187
