280
 energy: -408.465286633135 gnorm: 0.000702546733 xtb: 6.6.0 (conda-forge)
C            2.73015000047550       -3.27783999883716       -1.01553999545578
C            3.90262904275354       -3.02587202210847       -0.32498614161642
C            4.07235635550075       -1.80178186504758        0.29859633966422
C            3.06392223657966       -0.85525245095695        0.25284522580050
C            1.86823726757426       -1.09529167501384       -0.42958893108717
C            1.73218944014448       -2.32139106346682       -1.08121469454186
N            0.86483118014281       -0.12386505705320       -0.46302086210877
C            1.23409951860374        1.21240711478166       -0.63033532862865
C            0.51142176920743        2.08446820354747       -1.44487947947158
C            0.89099003933751        3.40744616424665       -1.58805326777945
C            2.01724133727552        3.89008323554178       -0.94503402631358
C            2.76414937202961        3.03446606546651       -0.15440317813500
C            2.36606153066707        1.72006471975491        0.01292199241231
H            2.58939138031491       -4.22058910350141       -1.52232929045648
H            4.68133675392528       -3.77093003105705       -0.27625402097337
H            4.97516254911306       -1.57548456076470        0.84526162399160
H            0.84345909734863       -2.53239408766148       -1.65416250903979
H           -0.35641725721087        1.72694524586842       -1.97424460173071
H            0.30201016475545        4.06233401703186       -2.21304449447287
H            2.31435982911781        4.92072359533398       -1.05567101394419
H            3.65165168063863        3.38030551101722        0.35253715112825
S            3.29459487039909        0.68006268031254        1.11172144860804
C           -0.51260481076352       -0.51731941389661       -0.65306059166473
H           -0.87060578124969       -0.34603484725181       -1.67443146258602
H           -0.60040979326252       -1.58348021246471       -0.44530734109517
C           -1.42888537081042        0.21079021662582        0.33853918432768
H           -1.08567597261293        0.01486746200781        1.36695438679396
H           -1.40143864135509        1.29858009836032        0.17861050542623
O           -2.73787720420960       -0.27884225189345        0.15695113457550
C           -3.66495414585446        0.27006867306033        1.06617494627577
H           -3.36373420837463        0.02825286982554        2.09669779101844
H           -3.70567458081353        1.36376331096796        0.96149838998402
C           -5.04654094916404       -0.31144492180931        0.78559785790604
H           -4.93167054163855       -1.35660125134793        0.46715644079140
H           -5.65272927087809       -0.28627968062733        1.70407273146915
O           -5.68353034791974        0.43810128875640       -0.22623612634279
C           -6.91228145554443       -0.12580680135659       -0.62241627325542
H           -7.61206583434942       -0.17785118676449        0.22069133232078
H           -7.31886340983806        0.52142296017465       -1.39649855180793
H           -6.77173622470430       -1.13574787408908       -1.02548993428762
C            1.98060058059727        2.38363339503397        6.43128217938527
C            0.72650950190240        2.34356543007832        5.75223746721526
N           -0.28391041080978        2.30476261893078        5.21167142371259
H            2.19588911646280        3.40552463445185        6.74059470868636
H            1.92477932150236        1.74624295241208        7.31614577949006
H            2.76860322222195        2.02143509030123        5.77281423790983
C           -2.86455098213999        0.88791330272890        6.80137235356142
C           -2.78754227174436       -0.53595457718573        6.72266137094367
N           -2.73488729821702       -1.67869750887689        6.65785850879828
H           -2.05859611531940        1.33037189743222        6.21286730510790
H           -3.82517113379552        1.22155469114842        6.41199095182417
H           -2.76060673275615        1.19833732015684        7.84022675960793
C            2.09851014230289        9.49288374736360        5.36172515844750
C            0.96815344609678        8.77572083835690        5.85339005163895
N            0.05820620316566        8.19976801539686        6.24661555442034
H            2.99292313808655        8.87799299063622        5.47158256246989
H            1.94917745532453        9.72507630984253        4.30717434642550
H            2.21995142918203       10.41577260734674        5.92649308802114
C            1.86081591587613       -3.05061395086705        4.83371746715002
C            3.24925995545490       -2.96001883026990        5.16557711950927
N            4.36114520286265       -2.89620596550578        5.43255307275024
H            1.32929826926575       -3.54392429298157        5.64648562811940
H            1.45205960735591       -2.05197111137225        4.68890813839597
H            1.74463741414580       -3.62946761823045        3.91838420022064
C           -7.99620818160205        3.43496199260990        6.97579527408521
C           -9.05526446057522        0.65142329145117        4.88090431176478
N           -9.24382461940155       -0.40028469311563        4.46415805354301
H           -7.46897788960796        3.31642257615772        7.92098222918361
H           -7.38962720703404        4.03749143148690        6.29340080261505
H           -8.93211819204765        3.97517072163320        7.14729305640701
C            4.35353759245928        5.77061457637570        3.15861142374335
C            4.55706619028019        6.60952610305227        4.29908615375885
N            4.71434328018995        7.28388230177628        5.21143640373078
H            3.30533907125258        5.47884782389860        3.10458144198353
H            4.62327493833715        6.31805301398285        2.25665770289057
H            4.97611899054863        4.88065696300499        3.24054176354035
C           -2.76514739945889       -5.46546901743863        1.51960881222955
C           -1.52720085079393       -6.17362800810680        1.56542287480824
N           -0.53294657452491       -6.74192921697408        1.60901465888368
H           -2.63281814776800       -4.47551247841811        1.95327980534200
H           -3.09200592836428       -5.37059979819594        0.48290121094414
H           -3.51915858410441       -6.01251437419623        2.08362915242125
C           -2.40818384849862        6.12495004359373        1.98317012298802
C           -3.66746553848744        5.90808854226852        2.62389112273787
N           -4.67574327814133        5.74602490425637        3.14305581496879
H           -2.33067504037918        5.49220123375416        1.10059867747933
H           -2.33926706138727        7.17165239983770        1.68715667992407
H           -1.60114121920461        5.88678525136623        2.67467860350655
C            9.02203239184869       -3.30775288140279        3.67392722156965
C           10.19077832487930       -3.34046254258101        2.79077589213647
N           11.40213509992255       -3.73622817208655        2.97200746254136
H            9.30012974794909       -3.63700028774356        4.67163592477704
H            9.37754630313431       -1.41713655877345        0.49662412261041
H            8.24434063608421       -3.96037972564194        3.27509792222420
C           -6.90201768516823       -5.19670185495707        5.83484194992912
C           -7.39832789273150       -5.95888390330486        4.72855402107160
N           -7.79428288388256       -6.56805296530259        3.84345781699926
H           -5.92797193213642       -4.78130892956848        5.58070840777073
H           -7.59547042142910       -4.38689829843310        6.05820067016669
H           -6.80381549874218       -5.84523324723090        6.70433868645184
C            6.44634608362925        9.29543485625650       -2.32669079350293
C            1.41777026210106        9.84544000987430        0.91618543121263
N            1.70934301796350        9.88250433321304        2.01847172734678
H            6.47601556678307        9.43190961974353       -3.40546012499941
H            7.43866535972025        9.00737939501658       -1.98660574818827
H            5.75117072211734        8.49355233437681       -2.09303587433479
C            0.20439095410985       -8.67304495206049       -3.37366424901022
C            0.64628942775975       -7.82285482396984       -4.42893828200406
N            0.99681526683697       -7.14190478640322       -5.28215111921815
H            1.02414021194235       -8.83775554159161       -2.67075229598509
H           -0.62725080855459       -8.20134065134487       -2.85150040601787
H           -0.11722370184514       -9.62823155007678       -3.78587465244417
C           -7.50240663746536        5.58470216488077       -0.96909436721503
C           -5.57377783830107        6.20475103213473       -2.38167985576373
N           -4.48647024538273        6.20400783400487       -2.76117589485374
H           -7.02344614174985        4.69352687194407       -0.58079988002559
H           -8.01270274539003        6.18760980120590       -0.22936501631095
H           -7.79668307632012        4.72020327689564       -2.97369488763673
C           10.19126481554891        3.75326934181834       -0.88439780861267
C            9.04418047683962        4.42664048862499       -0.36170600532563
N            8.12318868036360        4.96526922553482        0.05628950156044
H           10.75766034415075        3.30916153068926       -0.06710266556416
H            9.86539722041548        2.97161980020385       -1.57253075211063
H           10.82084110361680        4.46562796409988       -1.41539613847188
C           -5.69974107045253       -5.31506214878227       -3.46924144276667
C           -4.76487128421203       -5.33722422656044       -2.39058738525693
N           -4.01909670465058       -5.35585537749738       -1.52080194029626
H           -6.71149934536416       -5.25750366756389       -3.06444663424064
H           -5.51021007909105       -4.44671948825934       -4.09854285341531
H           -5.59709997297012       -6.22461326705957       -4.05953746627694
C           -0.20396823403813        8.52068014648635       -5.22558588991868
C            0.16959540167988        8.97243107266661       -3.88519363081803
N            1.16913378418510        8.70064727389918       -3.12072032971819
H           -2.47298264585866       10.16126982859504       -2.68159851012797
H           -0.32271789732882        9.38237483978463       -5.88319336849529
H            0.55292380535199        7.85020904811176       -5.62498846375077
C            2.94000780640463       -0.12146634057177       -5.98121311836651
C            2.53621348316150        0.10728937046915       -7.33197554353446
N            2.21370806057575        0.29357164122324       -8.41609438319643
H            3.39593567592220       -1.10884869563522       -5.90147766390097
H            3.65637820297079        0.64471584980625       -5.68392637157667
H            2.06976561860735       -0.07528655589326       -5.32879521746861
C           -4.12064137927617        1.29927880524469       -4.89288572096507
C           -5.37504754952244        1.52502351827219       -5.53926083077615
N           -6.38258750440279        1.70896682410345       -6.05241870015279
H           -4.15031941133067        0.34690365344257       -4.36563179620597
H           -3.32665150209524        1.27440818715691       -5.63840477899605
H           -3.92926677711575        2.10105694515498       -4.18112037240315
C            4.73682540046636        5.09363092095116       -5.47604459729472
C            4.81248184463106        3.68688136687043       -5.25404686927392
N            4.87435584033042        2.55606422619649       -5.07699783654533
H            5.72734040946804        5.53271397157010       -5.36572782846553
H            4.36562903063693        5.27931838546181       -6.48552107658775
H            4.05693234207853        5.53997978189816       -4.75264840613198
C           -1.24154460827477       -5.07818927717661       -6.77471300298381
C           -1.33941210926998       -3.82871653918241       -6.08899736336562
N           -1.43279001912022       -2.82721397355470       -5.54012903148426
H           -0.44395212957590       -5.67674112760196       -6.33356951133977
H           -2.18560001213836       -5.61320602784517       -6.68544984069842
H           -1.02772143876061       -4.89818155588462       -7.82909762810402
C            1.48198953933241        0.71651193742150       11.73977482312269
C            1.59366822750907        0.67977650713833       10.31469337207308
N            1.68833714426585        0.65618954485305        9.17371670501060
H            2.46250132117460        0.90854736440020       12.17383720669077
H            0.79513249791980        1.51230576657950       12.02543114384232
H            1.10447256525091       -0.23921684783562       12.10028785950758
C           -2.31187472304907       -4.39660616329104        8.58514418564605
C           -1.31653622453196       -4.12403349708110        9.57589666734220
N           -0.52100606534460       -3.90905211046182       10.37184512289759
H           -3.26095378473881       -4.60799541703750        9.07552381730929
H           -2.42397297145685       -3.52800589472214        7.93444535994867
H           -2.00880489437443       -5.25907431100109        7.99350555940247
C           -2.10712150125755        6.38510539254594        7.95218473284704
C           -1.47953610119519        5.59221777857603        8.96379012575337
N           -0.98587047640121        4.95247162810392        9.77605466111710
H           -2.61134413393938        5.73191383626450        7.24153331402251
H           -2.83091172675083        7.05444131384899        8.41486919593986
H           -1.35152320877644        6.97283938999047        7.42902833577519
C            5.62770147881028       -5.48501826339206        7.19126838875762
C            5.32280085736241       -6.58134064585302        6.32312788204396
N            5.07495807828443       -7.45555194978617        5.62579956169276
H            6.68643134168271       -5.50346430953371        7.44448453378642
H            5.38684078145307       -4.54980896700624        6.68320843806647
H            5.03351023655370       -5.56510542622017        8.10059862213992
C           -9.41652363138120        3.06389697608945        4.46368304908266
C           -8.85611079835051        1.98359677601777        5.34686475010776
N           -8.23467078289437        2.12985034123772        6.44244798824705
H          -10.12639267197600        3.66526067339519        5.03284017039362
H           -8.60741421425156        3.71982561400543        4.14022602225724
H           -9.91331626272631        2.64561440670338        3.59252970675793
C            9.80185218874946        6.90804916878467        4.37934581029128
C           11.03927765487959        6.52704690752192        3.76488170548913
N           12.02739310290435        6.22121535356957        3.27419046874115
H           10.00461908185954        7.42941862266647        5.31384169191075
H            9.25089473972732        7.56498629632345        3.70769704650132
H            9.20890795091998        6.01702065752737        4.58068897330788
C           -3.29683725914942      -10.70541270094527        4.01638467129713
C           -3.36679669475359       -9.63347232035820        4.96431011678234
N           -3.42568893243731       -8.77651154576452        5.72112471662798
H           -3.15007088781464      -11.64726875605734        4.54337568284201
H           -4.22560892604806      -10.74584403910430        3.44846287279881
H           -2.46258379594923      -10.53409598998412        3.33717062660106
C           -4.69518748874622        9.28862404894219        4.14436875624761
C           -4.03701813448405        9.47296073599080        2.88679599331074
N           -3.51146754776637        9.61146367201775        1.87871755464930
H           -4.02335807361284        9.57976215402835        4.95042231283024
H           -5.59501159807586        9.90104817594850        4.17828223366939
H           -4.96113955838555        8.23720331235296        4.25075505594588
C            9.80195560172968       -2.38074657835956        0.21377534603158
C           10.51450804287378       -2.95838403349623        1.35700845586521
N           11.73073288117289       -3.34884556377443        1.51354054643445
H            8.61634711503487       -2.29673585458990        3.71275881295511
H           10.47975352240141       -2.25498026864764       -0.62679131816279
H            8.97815868506829       -3.03620409991292       -0.07046937954477
C          -10.41842352420401       -5.16893073750857       -0.18523334883615
C           -9.46811764447714       -5.14037874992548       -1.25317055321362
N           -8.70966965268289       -5.11481312216588       -2.11082684737366
H          -10.11226633314401       -4.46854854939642        0.59088730179081
H          -11.40037080015236       -4.88854925176353       -0.56452001503801
H          -10.46135382052875       -6.17382757389293        0.23296602792981
C            5.99091746933021       10.58403080544260       -1.63558601703119
C            6.87913501590288       11.67730239699959       -1.92745492670728
N            7.59070272929951       12.54086577856201       -2.17027993761063
H            5.96371268294821       10.44626325206779       -0.55098343443152
H            4.98924431697655       10.86207228315388       -1.97470892168809
H            1.14773848386701        9.80746432544094       -0.11420036488349
C            2.43040105355381       -8.13567416232264        1.35380989373228
C            2.46104327986659       -8.65186370224886        0.02378131249566
N            2.47725142227704       -9.06076701120201       -1.04711988068054
H            3.23280973933058       -7.41168116812167        1.48543751103409
H            1.46807390958536       -7.64876491372640        1.52011558382855
H            2.55655568923544       -8.94833188390044        2.06740096198364
C           -9.17212160537904        6.42146612436182       -2.78349923810163
C           -7.97333140365327        5.61012099422537       -2.37311538055473
N           -6.80051246267310        6.36196096368490       -1.96762910616248
H           -9.24583451482264        7.32032913637265       -2.17730871151182
H           -9.09153279167733        6.70891264657899       -3.82959391847692
H          -10.07404934823106        5.82738038144023       -2.65475380882739
C            7.02256694748785        0.24931436016317       -4.06786396107142
C            8.10608483925181        0.93842181876621       -3.44475152770393
N            8.97876791863975        1.48960395338866       -2.94685268207731
H            6.27216737206889        0.97497835972520       -4.38591695203725
H            7.38675277680866       -0.29828327704542       -4.93590587934873
H            6.57447609689791       -0.44647527510233       -3.36038257377941
C           -2.12646951949932       -9.92960996669522       -9.23068816026698
C           -2.78845118670227       -9.91517063540897       -7.96011484528529
N           -3.31968996650104       -9.90330692575965       -6.94587019646255
H           -2.86374058480086      -10.06231820378082      -10.02151139216208
H           -1.60206284481736       -8.98626030093585       -9.37769968592084
H           -1.41130171598389      -10.75071654635954       -9.25761874168905
C           -1.57018579087706       10.77415347709220       -2.68319047010903
C           -0.40162133793040        9.90798149199487       -2.83194525282591
N            0.59051350845957        9.64778305549721       -2.05311753402734
H           -1.51339689804428       11.33788990028540       -1.75509766931074
H           -1.63472441539575       11.45366916990173       -3.53335320877455
H           -1.16516364780683        8.00691946165102       -5.17844374001502
C            3.38817472849876       -5.55277659900779       -6.94295091331613
C            3.73929467542112       -4.31113254369750       -6.32956640874912
N            4.02761417926568       -3.31531971643036       -5.84169176061863
H            2.59390249304973       -6.03116561611143       -6.36813490172923
H            3.04054401054744       -5.36871996118348       -7.95852751763178
H            4.25926361266928       -6.20613073924675       -6.96690353712665
C           -7.72578150273383        0.85192637541933       -8.98104209363964
C           -6.64068226927482        0.38083659345275       -9.78616394277267
N           -5.77244889428123        0.00368867773270      -10.43140474648134
H           -7.34392083634918        1.15971247794427       -8.00636724844631
H           -8.19909387483598        1.70194963808032       -9.47020125187005
H           -8.45412945133318        0.05315857422681       -8.84908470251306
C            3.57101512349185        4.66950291770286      -10.95487822623808
C            3.61003573659955        5.15942929077887       -9.61179286222349
N            3.64361396112592        5.55879448101149       -8.53906135238108
H            2.70543649154945        5.08510285998443      -11.46925481551554
H            4.48145393023952        4.96566530116964      -11.47470788046362
H            3.49742940845003        3.58292849416855      -10.93958972304947
C           -1.19434347006416       -2.11557555304869      -11.17421766604219
C           -1.06175264976430       -3.39422298455019      -10.54888666016249
N           -0.95474179234188       -4.41980731063712      -10.04977447096036
H           -1.44468428371083       -1.37144178963499      -10.41923033640432
H           -0.25251933433641       -1.84477182553559      -11.64970267536176
H           -1.98674000172747       -2.15406903151680      -11.92056040062188
