141
 energy: -203.675859413698 gnorm: 0.000637530924 xtb: 6.6.0 (conda-forge)
C           -1.64771000001056       -0.47374000007751       -1.11824000001968
H           -1.74041121973925       -0.74510960146813       -2.15629890984629
C           -1.86354289880004        0.81355069075944       -0.57471792507332
H           -2.14613738647899        1.69341827174155       -1.12681757348249
C           -1.71739159139819        0.72573027925614        0.82864344775695
H           -1.87031761128296        1.52700194200155        1.53097258563385
C           -1.36717421810304       -1.35713570588875       -0.05009972636858
H           -1.21185717725185       -2.41949719486764       -0.12975046783191
C           -1.41091491274814       -0.61570270862288        1.15323307345918
H           -1.29608384038342       -1.01689959107582        2.14607091425961
C            1.84385188631834        0.19599883301219       -1.43987269698186
H            1.85428989740562       -0.09941221785530       -2.47518834584282
C            1.62165630956711        1.50358694304367       -0.95006137708890
H            1.43304162543881        2.37928478100080       -1.54672773591583
C            1.77094419030255        1.47472763941215        0.45536762741963
H            1.71299267329315        2.32390702662694        1.11478834558677
C            2.13045879536205       -0.64076918459251       -0.33702173828520
H            2.39784768504068       -1.68252568616633       -0.38607626152446
C            2.08550490126063        0.14962424486068        0.83404041656731
H            2.31168663788546       -0.18677885970191        1.83140378517919
Fe           0.14726901476778        0.17645947110457       -0.11612478627003
C            1.86513065461999        0.86707325409270        6.95487574278065
C            2.81535267719807       -0.06726231873764        6.43608963230110
N            3.57205277468762       -0.81924416170522        6.01802194821775
H            2.33009368504635        1.46064773906357        7.74040563402697
H            1.52730530565818        1.52358850208581        6.15431488584928
H            1.01366650126087        0.32066214429996        7.36360434728966
C           -1.59714065948742       -3.40521832635445        7.39237752520163
C           -1.06675290014487       -2.11261000643629        7.69610997187354
N           -0.64413486694664       -1.07519755616321        7.93475333177310
H           -1.03078449935986       -4.16631254388778        7.92759380896688
H           -2.64367573366187       -3.44967761868445        7.69122083384150
H           -1.51915653327510       -3.58238475685506        6.32060390577214
C           -0.40136621261659        6.56517595960877        6.17625027666375
C           -0.43666918388619        5.73286227509744        5.01110425281134
N           -0.46883254627382        5.06603046885830        4.08117795837400
H            0.49907535059408        6.34780345667309        6.74935752962200
H           -0.39545538034449        7.61148569349071        5.87367293860450
H           -1.28179973125453        6.36854480516349        6.78708411338836
C            3.31831928741782       -5.74881330297362        4.61833387112277
C            2.03706052622087       -6.37678138371163        4.68639023947926
N            1.00663508688272       -6.87435069965749        4.74048665451848
H            3.24083606526233       -4.84109071861660        4.02174070296243
H            3.65826696691252       -5.49339521883177        5.62121968558245
H            4.03246182067687       -6.42720409693450        4.15324407911459
C           -4.23069572363644        1.75468777389196        5.71393098076165
C           -4.76128969356798        3.08251445026020        5.62820382497993
N           -5.18350571347758        4.14467228212649        5.55931672818313
H           -4.45893148274637        1.33375896521456        6.69219793437620
H           -4.67587718748548        1.13317282518840        4.93827800486265
H           -3.15093711987389        1.78752932122823        5.57707693109826
C            5.81365392294547        3.36662698047422        3.25090958036600
C            5.03245735282443        4.16211344838883        4.14931820486930
N            4.40827826924084        4.79905790235139        4.86786886476504
H            5.54909535046150        2.31706247300797        3.37039328460942
H            5.61615394450853        3.67558527581120        2.22530556317163
H            6.87201812973286        3.50048106891329        3.47053193862272
C           -1.86901762632907       -7.58704532251251        3.30808693639569
C           -1.78959505805249       -7.14825034362090        1.95199355622894
N           -1.72991409288168       -6.79703754799819        0.86255076876325
H           -0.92359308284736       -7.37482264371363        3.81051185266736
H           -2.67643126057525       -7.06100029687107        3.81559123708644
H           -2.05799137938183       -8.65930838368448        3.33244155407021
C           -3.84816028063242        6.28917983051340        0.59750243795689
C           -3.34827625023723        7.60362221079526        0.32665913845754
N           -2.94791993267500        8.65329632315202        0.10464609925111
H           -4.23651099857581        6.24889443096191        1.61441706950044
H           -4.64195754854891        6.05078951422903       -0.10923175893377
H           -3.04023854778740        5.56734440193058        0.49028738477548
C            6.90259043620450       -2.79630504579580        1.88067643075104
C            7.61394075614730       -3.80818408261662        2.60378792293736
N            8.17705600039512       -4.61856860334710        3.18447404843029
H            6.35029921635675       -2.17133686001947        2.58128593014603
H            7.60917135962906       -2.18105500109596        1.32539494817884
H            6.20800243584461       -3.26870533556866        1.18703246376687
C           -5.88382575131107       -3.22253910638585        1.38845833575363
C           -5.52340906455495       -3.24075924266982        2.77458146515850
N           -5.23884067579928       -3.25637184787890        3.88357449109519
H           -6.90596655456102       -3.58139551156029        1.27495280290018
H           -5.80948996639763       -2.20484270714556        1.00769069763210
H           -5.20606927668541       -3.86827094116286        0.83209203197413
C            2.19335843408946        7.12466037688478        0.26429234306854
C            3.19315268010161        6.61270860141321       -0.62389825365411
N            3.99426424789557        6.20197431725758       -1.33146804462781
H            2.54860676952690        7.05329458397561        1.29157303470405
H            1.98770298877210        8.16614407391554        0.02077222613003
H            1.28005266901726        6.54177829715593        0.15617651000206
C            0.63990842687759       -6.59998652028992       -1.51202277047235
C            1.88119116711566       -6.36245062636508       -0.84180869140883
N            2.87615995946020       -6.16617568268433       -0.30884311290828
H           -0.16732217483695       -6.61970062142550       -0.77810735936610
H            0.46108710319288       -5.80527156148238       -2.23476250110992
H            0.68184183351234       -7.55753766948890       -2.02906766256588
C           -9.01382569618123        6.23841187028597       -3.57471221785493
C           -7.75273119807618        5.62509364469501       -3.86903743747690
N           -6.74599372007883        5.13292452412307       -4.10332028345991
H           -9.22891245619188        6.13432656186343       -2.51189613992342
H           -8.97347710359368        7.29525585397468       -3.83542897090359
H           -9.79735094063382        5.75093505106495       -4.15358459794070
C            7.06840745265841        2.32959560854554       -2.76136940293767
C            7.84913176207627        2.01041923948599       -1.60417681478128
N            8.47365147345029        1.75619390816603       -0.67849563263149
H            6.03978425546400        2.00829641296577       -2.60389032662304
H            7.09137619028552        3.40566988951552       -2.92778118436887
H            7.48016038877807        1.81651969072108       -3.62935939450425
C           -3.95314498434923       -5.21152495595698       -3.95835331784085
C           -3.63236631601500       -6.17181578142800       -4.97288413736439
N           -3.37958010703664       -6.93929244748334       -5.78391280493265
H           -3.84139320891036       -5.67186610576431       -2.97773978816739
H           -3.28078987993096       -4.35871967082398       -4.04038035517311
H           -4.98114481852857       -4.87690569344082       -4.09107489845347
C           -1.89390868728491        7.50327892423047       -4.97061169209074
C           -1.44077499407351        6.39408358968694       -4.18591533307376
N           -1.08180999674302        5.50624013742288       -3.55869518508754
H           -2.92609485045293        7.33278550899071       -5.27383275367691
H           -1.83530538448097        8.41426383956739       -4.37627180840290
H           -1.26528583143583        7.60185168325757       -5.85477650681668
C            4.03316442835651       -3.52208358450802       -5.03085265372305
C            4.64236517649174       -2.28741636903786       -5.41735768866310
N            5.12745591748711       -1.29597824830284       -5.72472138545299
H            4.09196367099773       -3.63372413970126       -3.94925123251326
H            2.98738077886497       -3.52030366781705       -5.34194213749169
H            4.55207514880900       -4.35041123272789       -5.51100598026631
C           -3.43414345813910        1.89247098923336       -6.24838664017276
C           -3.13440037672445        0.51859306761591       -6.50359004414307
N           -2.89832911164391       -0.58327707820137       -6.70929443140328
H           -3.54333210075335        2.04952472821909       -5.17635393446575
H           -2.62273120980107        2.51485860978267       -6.62385288232513
H           -4.36225986098018        2.16334523963114       -6.75007231922137
C            2.95771047551127        3.42595008408378       -6.10635494536908
C            2.04832561111966        3.97092664375079       -7.06876781411941
N            1.31853139577443        4.40468670576217       -7.83748043991332
H            3.00717752547657        4.08527326390601       -5.24071128511711
H            2.60747606813667        2.44286537494416       -5.79525966567617
H            3.94704182438768        3.33179459520666       -6.55192412994651
C           -0.82833955726525       -2.84390857781466       -7.94473373914876
C            0.14220877261441       -3.17801901261133       -6.95245119822782
N            0.91765256946378       -3.44701058225003       -6.15285439241442
H           -1.54473779823795       -2.13557436422570       -7.52529748574529
H           -0.33081301370339       -2.39028488609212       -8.80096367078847
H           -1.35077937781389       -3.74547212400534       -8.26137490987909
