 Entering Gaussian System, Link 0=g16
 Input=Ferrocene_p1_gas.com
 Output=Ferrocene_p1_gas.log
 Initial command:
 /gpfs/fs1/soft/improv/software/custom-built/gaussian/g16/l1.exe "/scratch/Gau-1163648.inp" -scrdir="/scratch/"
 Default CPUs for threads: 0-127
 Default linda workers: i467.lcrc.anl.gov
 Default is to use 128 SMP processors on each worker.
 Entering Link 1 = /gpfs/fs1/soft/improv/software/custom-built/gaussian/g16/l1.exe PID=   1163649.
  
 Copyright (c) 1988-2021, Gaussian, Inc.  All Rights Reserved.
  
 This is part of the Gaussian(R) 16 program.  It is based on
 the Gaussian(R) 09 system (copyright 2009, Gaussian, Inc.),
 the Gaussian(R) 03 system (copyright 2003, Gaussian, Inc.),
 the Gaussian(R) 98 system (copyright 1998, Gaussian, Inc.),
 the Gaussian(R) 94 system (copyright 1995, Gaussian, Inc.),
 the Gaussian 92(TM) system (copyright 1992, Gaussian, Inc.),
 the Gaussian 90(TM) system (copyright 1990, Gaussian, Inc.),
 the Gaussian 88(TM) system (copyright 1988, Gaussian, Inc.),
 the Gaussian 86(TM) system (copyright 1986, Carnegie Mellon
 University), and the Gaussian 82(TM) system (copyright 1983,
 Carnegie Mellon University). Gaussian is a federally registered
 trademark of Gaussian, Inc.
  
 This software contains proprietary and confidential information,
 including trade secrets, belonging to Gaussian, Inc.
  
 This software is provided under written license and may be
 used, copied, transmitted, or stored only in accord with that
 written license.
  
 The following legend is applicable only to US Government
 contracts under FAR:
  
                    RESTRICTED RIGHTS LEGEND
  
 Use, reproduction and disclosure by the US Government is
 subject to restrictions as set forth in subparagraphs (a)
 and (c) of the Commercial Computer Software - Restricted
 Rights clause in FAR 52.227-19.
  
 Gaussian, Inc.
 340 Quinnipiac St., Bldg. 40, Wallingford CT 06492
  
  
 ---------------------------------------------------------------
 Warning -- This program may not be used in any manner that
 competes with the business of Gaussian, Inc. or will provide
 assistance to any competitor of Gaussian, Inc.  The licensee
 of this program is prohibited from giving any competitor of
 Gaussian, Inc. access to this program.  By using this program,
 the user acknowledges that Gaussian, Inc. is engaged in the
 business of creating and licensing software in the field of
 computational chemistry and represents and warrants to the
 licensee that it is not a competitor of Gaussian, Inc. and that
 it will not use this program in any manner prohibited above.
 ---------------------------------------------------------------
  

 Cite this work as:
 Gaussian 16, Revision C.02,
 M. J. Frisch, G. W. Trucks, H. B. Schlegel, G. E. Scuseria, 
 M. A. Robb, J. R. Cheeseman, G. Scalmani, V. Barone, 
 G. A. Petersson, H. Nakatsuji, X. Li, M. Caricato, A. V. Marenich, 
 J. Bloino, B. G. Janesko, R. Gomperts, B. Mennucci, H. P. Hratchian, 
 J. V. Ortiz, A. F. Izmaylov, J. L. Sonnenberg, D. Williams-Young, 
 F. Ding, F. Lipparini, F. Egidi, J. Goings, B. Peng, A. Petrone, 
 T. Henderson, D. Ranasinghe, V. G. Zakrzewski, J. Gao, N. Rega, 
 G. Zheng, W. Liang, M. Hada, M. Ehara, K. Toyota, R. Fukuda, 
 J. Hasegawa, M. Ishida, T. Nakajima, Y. Honda, O. Kitao, H. Nakai, 
 T. Vreven, K. Throssell, J. A. Montgomery, Jr., J. E. Peralta, 
 F. Ogliaro, M. J. Bearpark, J. J. Heyd, E. N. Brothers, K. N. Kudin, 
 V. N. Staroverov, T. A. Keith, R. Kobayashi, J. Normand, 
 K. Raghavachari, A. P. Rendell, J. C. Burant, S. S. Iyengar, 
 J. Tomasi, M. Cossi, J. M. Millam, M. Klene, C. Adamo, R. Cammi, 
 J. W. Ochterski, R. L. Martin, K. Morokuma, O. Farkas, 
 J. B. Foresman, and D. J. Fox, Gaussian, Inc., Wallingford CT, 2019.
 
 ******************************************
 Gaussian 16:  ES64L-G16RevC.02  7-Dec-2021
                31-Jan-2025 
 ******************************************
 %chk=Ferrocene_p1_gas
 SetSPE:  set environment variable "OMP_PROC_BIND" = "true"
 SetSPE:  set environment variable "OMP_PLACES" = "{0},{1},{2},{3},{4},{5},{6},{7},{8},{9},{10},{11},{12},{13},{14},{15},{16},{17},{18},{19},{20},{21},{22},{23},{24},{25},{26},{27},{28},{29},{30},{31},{32},{33},{34},{35},{36},{37},{38},{39},{40},{41},{42},{43},{44},{45},{46},{47},{48},{49},{50},{51},{52},{53},{54},{55},{56},{57},{58},{59},{60},{61},{62},{63},{64},{65},{66},{67},{68},{69},{70},{71},{72},{73},{74},{75},{76},{77},{78},{79},{80},{81},{82},{83},{84},{85},{86},{87},{88},{89},{90},{91},{92},{93},{94},{95},{96},{97},{98},{99},{100},{101},{102},{103},{104},{105},{106},{107},{108},{109},{110},{111},{112},{113},{114},{115},{116},{117},{118},{119},{120},{121},{122},{123},{124},{125},{126},{127}"
 SetLPE:    new flags="-opt 'Tsnet.Node.lindarsharg: ssh'  -nodelist 'i467.lcrc.anl.gov' -env GAUSS_MDEF=13421772800 -env GAUSS_EXEDIR="/gpfs/fs1/soft/improv/software/custom-built/gaussian/g16/bsd:/gpfs/fs1/soft/improv/software/custom-built/gaussian/g16" -env "OMP_PROC_BIND=true" -env "OMP_PLACES={0},{1},{2},{3},{4},{5},{6},{7},{8},{9},{10},{11},{12},{13},{14},{15},{16},{17},{18},{19},{20},{21},{22},{23},{24},{25},{26},{27},{28},{29},{30},{31},{32},{33},{34},{35},{36},{37},{38},{39},{40},{41},{42},{43},{44},{45},{46},{47},{48},{49},{50},{51},{52},{53},{54},{55},{56},{57},{58},{59},{60},{61},{62},{63},{64},{65},{66},{67},{68},{69},{70},{71},{72},{73},{74},{75},{76},{77},{78},{79},{80},{81},{82},{83},{84},{85},{86},{87},{88},{89},{90},{91},{92},{93},{94},{95},{96},{97},{98},{99},{100},{101},{102},{103},{104},{105},{106},{107},{108},{109},{110},{111},{112},{113},{114},{115},{116},{117},{118},{119},{120},{121},{122},{123},{124},{125},{126},{127}" -env GAUSS_ADEF="0,1,2,3,4,5,6,7,8,9,10,11,12,13,14,15,16,17,18,19,20,21,22,23,24,25,26,27,28,29,30,31,32,33,34,35,36,37,38,39,40,41,42,43,44,45,46,47,48,49,50,51,52,53,54,55,56,57,58,59,60,61,62,63,64,65,66,67,68,69,70,71,72,73,74,75,76,77,78,79,80,81,82,83,84,85,86,87,88,89,90,91,92,93,94,95,96,97,98,99,100,101,102,103,104,105,106,107,108,109,110,111,112,113,114,115,116,117,118,119,120,121,122,123,124,125,126,127""
 Will use up to    1 processors via Linda.
 ----------------------------------------------------------------------
 #p ub3lyp 6-31G(2df,p) opt=(calcfc,cartesian) freq scf=(novaracc,maxcy
 cles=1000,fermi,xqc) empiricaldispersion=gd3
 ----------------------------------------------------------------------
 1/10=4,18=10,26=3,38=1/1,3;
 2/12=2,17=6,18=5,29=2,40=1/2;
 3/5=1,6=6,7=104,11=2,25=1,30=1,71=2,74=-5,116=2,124=31,140=1/1,2,3;
 4//1;
 5/5=2,7=1000,8=3,13=1,22=13,38=1/2,8;
 8/6=4,10=90,11=11/1;
 11/6=1,8=1,9=11,15=111,16=1/1,2,10;
 10/6=1,13=1/2;
 6/7=2,8=2,9=2,10=2,28=1/1;
 7/7=1,10=1,25=1/1,2,3,16;
 1/10=4,18=10,26=3/3(2);
 2/29=1/2;
 99/12=1/99;
 2/29=1/2;
 3/5=1,6=6,7=104,11=2,25=1,30=1,71=1,74=-5,116=2,124=31/1,2,3;
 4/5=5,16=3,69=1/1;
 5/5=2,7=1000,8=3,13=1,22=13,38=1/2,8;
 7/7=1/1,2,3,16;
 1/18=10,26=3/3(-5);
 2/29=1/2;
 6/7=2,8=2,9=2,10=2,19=2,28=1/1;
 99/9=1,12=1/99;
 Leave Link    1 at Fri Jan 31 16:24:32 2025, MaxMem=           0 cpu:               6.8 elap:               0.1
 (Enter /gpfs/fs1/soft/improv/software/custom-built/gaussian/g16/l101.exe)
 -------------------
 Title Card Required
 -------------------
 Symbolic Z-matrix:
 Charge =  1 Multiplicity = 2
 C                    -0.74452   0.87741   0.0214 
 H                     0.22696   1.32261   0.07553 
 C                    -1.276     0.11699  -1.19828 
 H                    -1.21542   0.55043  -2.17468 
 C                    -2.46078  -0.64075  -0.79994 
 H                    -3.31149  -0.75911  -1.43806 
 C                    -1.46691   0.24841   1.2156 
 H                    -1.55563   0.78629   2.13631 
 C                    -2.58205  -0.55623   0.7242 
 H                    -3.52296  -0.61      1.23084 
 C                    -2.58427   3.26569   0.04375 
 H                    -1.60962   3.59333   0.33975 
 C                    -2.80582   2.65485  -1.33551 
 H                    -2.41171   3.06695  -2.24091 
 C                    -4.06485   1.98735  -1.28727 
 H                    -4.33787   1.26173  -2.02472 
 C                    -3.44521   2.43641   0.9908 
 H                    -3.58715   2.66406   2.02662 
 C                    -4.47092   1.85481   0.18647 
 H                    -5.04819   1.02995   0.54879 
 Fe                   -2.56215   1.21376  -0.14274 
 
 ITRead=  0  0  0  0  0  0  0  0  0  0  0  0  0  0  0  0  0  0  0  0
 ITRead=  0
 MicOpt= -1 -1 -1 -1 -1 -1 -1 -1 -1 -1 -1 -1 -1 -1 -1 -1 -1 -1 -1 -1
 MicOpt= -1
 NAtoms=     21 NQM=       21 NQMF=       0 NMMI=      0 NMMIF=      0
                NMic=       0 NMicF=      0.
                    Isotopes and Nuclear Properties:
 (Nuclear quadrupole moments (NQMom) in fm**2, nuclear magnetic moments (NMagM)
  in nuclear magnetons)

  Atom         1           2           3           4           5           6           7           8           9          10
 IAtWgt=          12           1          12           1          12           1          12           1          12           1
 AtmWgt=  12.0000000   1.0078250  12.0000000   1.0078250  12.0000000   1.0078250  12.0000000   1.0078250  12.0000000   1.0078250
 NucSpn=           0           1           0           1           0           1           0           1           0           1
 AtZEff=  -0.0000000  -0.0000000  -0.0000000  -0.0000000  -0.0000000  -0.0000000  -0.0000000  -0.0000000  -0.0000000  -0.0000000
 NQMom=    0.0000000   0.0000000   0.0000000   0.0000000   0.0000000   0.0000000   0.0000000   0.0000000   0.0000000   0.0000000
 NMagM=    0.0000000   2.7928460   0.0000000   2.7928460   0.0000000   2.7928460   0.0000000   2.7928460   0.0000000   2.7928460
 AtZNuc=   6.0000000   1.0000000   6.0000000   1.0000000   6.0000000   1.0000000   6.0000000   1.0000000   6.0000000   1.0000000

  Atom        11          12          13          14          15          16          17          18          19          20
 IAtWgt=          12           1          12           1          12           1          12           1          12           1
 AtmWgt=  12.0000000   1.0078250  12.0000000   1.0078250  12.0000000   1.0078250  12.0000000   1.0078250  12.0000000   1.0078250
 NucSpn=           0           1           0           1           0           1           0           1           0           1
 AtZEff=  -0.0000000  -0.0000000  -0.0000000  -0.0000000  -0.0000000  -0.0000000  -0.0000000  -0.0000000  -0.0000000  -0.0000000
 NQMom=    0.0000000   0.0000000   0.0000000   0.0000000   0.0000000   0.0000000   0.0000000   0.0000000   0.0000000   0.0000000
 NMagM=    0.0000000   2.7928460   0.0000000   2.7928460   0.0000000   2.7928460   0.0000000   2.7928460   0.0000000   2.7928460
 AtZNuc=   6.0000000   1.0000000   6.0000000   1.0000000   6.0000000   1.0000000   6.0000000   1.0000000   6.0000000   1.0000000

  Atom        21
 IAtWgt=          56
 AtmWgt=  55.9349393
 NucSpn=           0
 AtZEff=  -0.0000000
 NQMom=    0.0000000
 NMagM=    0.0000000
 AtZNuc=  26.0000000
 Leave Link  101 at Fri Jan 31 16:24:32 2025, MaxMem= 13421772800 cpu:               0.4 elap:               0.1
 (Enter /gpfs/fs1/soft/improv/software/custom-built/gaussian/g16/l103.exe)

 GradGradGradGradGradGradGradGradGradGradGradGradGradGradGradGradGradGrad
 Berny optimization.
 Initialization pass.
 No Z-matrix variables, so optimization will use Cartesian coordinates.
 Trust Radius=3.00D-01 FncErr=1.00D-07 GrdErr=1.00D-06 EigMax=2.50D+02 EigMin=1.00D-04
 Number of steps in this run=     73 maximum allowed number of steps=    126.
 GradGradGradGradGradGradGradGradGradGradGradGradGradGradGradGradGradGrad

 Leave Link  103 at Fri Jan 31 16:24:33 2025, MaxMem= 13421772800 cpu:               0.4 elap:               0.1
 (Enter /gpfs/fs1/soft/improv/software/custom-built/gaussian/g16/l202.exe)
 ---------------------------------------------------------------------------------------------------
                            Z-MATRIX (ANGSTROMS AND DEGREES)
   CD    Cent   Atom    N1       Length/X        N2       Alpha/Y        N3        Beta/Z          J
 ---------------------------------------------------------------------------------------------------
      1      1  C        0  -0.744517          0.877405          0.021396
      2      2  H        0   0.226956          1.322612          0.075527
      3      3  C        0  -1.276004          0.116992         -1.198281
      4      4  H        0  -1.215421          0.550427         -2.174685
      5      5  C        0  -2.460783         -0.640746         -0.799942
      6      6  H        0  -3.311487         -0.759109         -1.438058
      7      7  C        0  -1.466911          0.248405          1.215597
      8      8  H        0  -1.555630          0.786293          2.136306
      9      9  C        0  -2.582046         -0.556230          0.724197
     10     10  H        0  -3.522959         -0.609998          1.230845
     11     11  C        0  -2.584268          3.265690          0.043751
     12     12  H        0  -1.609622          3.593335          0.339747
     13     13  C        0  -2.805824          2.654848         -1.335506
     14     14  H        0  -2.411711          3.066947         -2.240906
     15     15  C        0  -4.064849          1.987346         -1.287269
     16     16  H        0  -4.337873          1.261725         -2.024719
     17     17  C        0  -3.445212          2.436413          0.990797
     18     18  H        0  -3.587147          2.664055          2.026621
     19     19  C        0  -4.470918          1.854810          0.186474
     20     20  H        0  -5.048186          1.029955          0.548795
     21     21  Fe       0  -2.562151          1.213755         -0.142743
 ---------------------------------------------------------------------------------------------------
                         Z-Matrix orientation:                         
 ---------------------------------------------------------------------
 Center     Atomic      Atomic             Coordinates (Angstroms)
 Number     Number       Type             X           Y           Z
 ---------------------------------------------------------------------
      1          6           0       -0.744517    0.877405    0.021396
      2          1           0        0.226956    1.322612    0.075527
      3          6           0       -1.276004    0.116992   -1.198281
      4          1           0       -1.215421    0.550427   -2.174685
      5          6           0       -2.460783   -0.640746   -0.799942
      6          1           0       -3.311487   -0.759109   -1.438058
      7          6           0       -1.466911    0.248405    1.215597
      8          1           0       -1.555630    0.786293    2.136306
      9          6           0       -2.582046   -0.556230    0.724197
     10          1           0       -3.522959   -0.609998    1.230845
     11          6           0       -2.584268    3.265690    0.043751
     12          1           0       -1.609622    3.593335    0.339747
     13          6           0       -2.805824    2.654848   -1.335506
     14          1           0       -2.411711    3.066947   -2.240906
     15          6           0       -4.064849    1.987346   -1.287269
     16          1           0       -4.337873    1.261725   -2.024719
     17          6           0       -3.445212    2.436413    0.990797
     18          1           0       -3.587147    2.664055    2.026621
     19          6           0       -4.470918    1.854810    0.186474
     20          1           0       -5.048186    1.029955    0.548795
     21         26           0       -2.562151    1.213755   -0.142743
 ---------------------------------------------------------------------
                    Distance matrix (angstroms):
                    1          2          3          4          5
     1  C    0.000000
     2  H    1.070000   0.000000
     3  C    1.532422   2.309761   0.000000
     4  H    2.269677   2.782117   1.070000   0.000000
     5  C    2.434121   3.441680   1.461692   2.204481   0.000000
     6  H    3.376021   4.375510   2.228955   2.578952   1.070000
     7  C    1.530886   2.307134   2.424979   3.412986   2.416768
     8  H    2.266948   2.777060   3.412569   4.330822   3.387816
     9  C    2.434287   3.441121   2.419689   3.390556   1.531290
    10  H    3.375629   4.373969   3.387916   4.274219   2.291999
    11  C    3.014811   3.417535   3.628842   3.764021   3.998413
    12  H    2.868105   2.932408   3.815991   3.966995   4.466633
    13  C    3.041294   3.600503   2.966461   2.768067   3.356609
    14  H    3.562533   3.920604   3.328533   2.787180   3.978162
    15  C    3.737536   4.551778   3.359137   3.312323   3.117272
    16  H    4.152889   5.025177   3.371714   3.205954   2.939888
    17  C    3.265577   3.945008   3.857102   4.306876   3.693880
    18  H    3.910702   4.489279   4.714754   5.267208   4.492201
    19  C    3.855987   4.729225   3.891662   4.227854   3.352829
    20  H    4.338547   5.304409   4.256187   4.726243   3.362289
    21  Fe   1.855765   2.799752   1.992793   2.526356   1.970117
                    6          7          8          9         10
     6  H    0.000000
     7  C    3.385178   0.000000
     8  H    4.271695   1.070000   0.000000
     9  C    2.290981   1.460287   2.202260   0.000000
    10  H    2.681417   2.228098   2.576795   1.070000   0.000000
    11  C    4.350128   3.424283   3.403570   3.882021   4.160684
    12  H    5.000070   3.460641   3.333170   4.279287   4.703501
    13  C    3.452726   3.753902   4.136177   3.821449   4.214221
    14  H    4.011591   4.558974   5.009416   4.684897   5.177630
    15  C    2.851895   4.004689   4.411300   3.565737   3.657969
    16  H    2.341241   4.446221   5.028025   3.734224   3.842672
    17  C    4.016040   2.958308   2.757826   3.126026   3.056842
    18  H    4.878324   3.314894   2.768588   3.616182   3.369986
    19  C    3.288762   3.558607   3.666398   3.109678   2.839826
    20  H    3.188175   3.725718   3.844153   2.937447   2.341144
    21  Fe   2.476195   1.994126   2.527819   1.970997   2.477089
                   11         12         13         14         15
    11  C    0.000000
    12  H    1.070000   0.000000
    13  C    1.524652   2.262328   0.000000
    14  H    2.299768   2.753217   1.070000   0.000000
    15  C    2.365988   3.354776   1.425844   2.192676   0.000000
    16  H    3.371880   4.297727   2.182425   2.648709   1.070000
    17  C    1.525064   2.265331   2.422440   3.451029   2.403163
    18  H    2.302066   2.760382   3.451731   4.444746   3.415846
    19  C    2.360170   3.351564   2.393538   3.406140   1.534398
    20  H    3.365186   4.293989   3.349486   4.345431   2.292308
    21  Fe   2.060511   2.608162   1.886481   2.803434   2.041197
                   16         17         18         19         20
    16  H    0.000000
    17  C    3.357092   0.000000
    18  H    4.352411   1.070000   0.000000
    19  C    2.293213   1.427330   2.195921   0.000000
    20  H    2.679783   2.177847   2.643651   1.070000   0.000000
    21  Fe   2.587919   1.886690   2.803592   2.040276   2.586963
                   21
    21  Fe   0.000000
 Stoichiometry    C10H10Fe(1+,2)
 Framework group  C1[X(C10H10Fe)]
 Deg. of freedom    57
 Full point group                 C1      NOp   1
 Largest Abelian subgroup         C1      NOp   1
 Largest concise Abelian subgroup C1      NOp   1
                         Standard orientation:                         
 ---------------------------------------------------------------------
 Center     Atomic      Atomic             Coordinates (Angstroms)
 Number     Number       Type             X           Y           Z
 ---------------------------------------------------------------------
      1          6           0       -1.385604   -0.216884    1.257091
      2          1           0       -1.607781   -0.392283    2.288969
      3          6           0       -1.568349   -1.258674    0.148221
      4          1           0       -1.166558   -2.244045    0.260060
      5          6           0       -1.512424   -0.581920   -1.146159
      6          1           0       -1.045698   -1.017038   -2.005076
      7          6           0       -1.573222    1.131586    0.557064
      8          1           0       -1.174755    2.024556    0.991494
      9          6           0       -1.513839    0.927392   -0.887656
     10          1           0       -1.047795    1.625664   -1.551071
     11          6           0        1.613499    0.090470    1.254634
     12          1           0        1.272880    0.155728    2.266870
     13          6           0        1.382249   -1.180182    0.444367
     14          1           0        1.563313   -2.166718    0.817008
     15          6           0        1.586707   -0.833237   -0.923426
     16          1           0        1.234584   -1.461415   -1.714818
     17          6           0        1.370058    1.236533    0.278368
     18          1           0        1.540680    2.267302    0.509244
     19          6           0        1.584265    0.697734   -1.025887
     20          1           0        1.230775    1.212308   -1.894886
     21         26           0       -0.026911   -0.003114    0.011250
 ---------------------------------------------------------------------
 Rotational constants (GHZ):           2.0709620           1.2322389           1.2128305
 Leave Link  202 at Fri Jan 31 16:24:33 2025, MaxMem= 13421772800 cpu:               0.5 elap:               0.1
 (Enter /gpfs/fs1/soft/improv/software/custom-built/gaussian/g16/l301.exe)
 Standard basis: 6-31G(2df,p) (6D, 7F)
 Ernie: Thresh=  0.10000D-02 Tol=  0.10000D-05 Strict=F.
 There are   424 symmetry adapted cartesian basis functions of A   symmetry.
 There are   382 symmetry adapted basis functions of A   symmetry.
   382 basis functions,   639 primitive gaussians,   424 cartesian basis functions
    48 alpha electrons       47 beta electrons
       nuclear repulsion energy       942.7790987987 Hartrees.
 IExCor=  402 DFT=T Ex+Corr=B3LYP ExCW=0 ScaHFX=  0.200000
 ScaDFX=  0.800000  0.720000  1.000000  0.810000 ScalE2=  1.000000  1.000000
 IRadAn=      5 IRanWt=     -1 IRanGd=            0 ICorTp=0 IEmpDi=131
 NAtoms=   21 NActive=   21 NUniq=   21 SFac= 1.00D+00 NAtFMM=   60 NAOKFM=F Big=F
 Integral buffers will be    131072 words long.
 Raffenetti 2 integral format.
 Two-electron integral symmetry is turned on.
 R6Disp:  Grimme-D3 Dispersion energy=       -0.0241932874 Hartrees.
 Nuclear repulsion after empirical dispersion term =      942.7549055113 Hartrees.
 Leave Link  301 at Fri Jan 31 16:24:33 2025, MaxMem= 13421772800 cpu:               0.4 elap:               0.1
 (Enter /gpfs/fs1/soft/improv/software/custom-built/gaussian/g16/l302.exe)
 NPDir=0 NMtPBC=     1 NCelOv=     1 NCel=       1 NClECP=     1 NCelD=      1
         NCelK=      1 NCelE2=     1 NClLst=     1 CellRange=     0.0.
 One-electron integrals computed using PRISM.
 One-electron integral symmetry used in STVInt
 NBasis=   382 RedAO= T EigKep=  4.54D-04  NBF=   382
 NBsUse=   382 1.00D-06 EigRej= -1.00D+00 NBFU=   382
 Precomputing XC quadrature grid using
 IXCGrd= 4 IRadAn=           5 IRanWt=          -1 IRanGd=           0 AccXCQ= 0.00D+00.
 Generated NRdTot=       0 NPtTot=           0 NUsed=           0 NTot=          32
 NSgBfM=   424   424   424   424   424 MxSgAt=    21 MxSgA2=    21.
 Leave Link  302 at Fri Jan 31 16:24:34 2025, MaxMem= 13421772800 cpu:              25.7 elap:               0.3
 (Enter /gpfs/fs1/soft/improv/software/custom-built/gaussian/g16/l303.exe)
 DipDrv:  MaxL=1.
 Leave Link  303 at Fri Jan 31 16:24:35 2025, MaxMem= 13421772800 cpu:               1.3 elap:               0.1
 (Enter /gpfs/fs1/soft/improv/software/custom-built/gaussian/g16/l401.exe)
 ExpMin= 4.11D-02 ExpMax= 6.11D+04 ExpMxC= 9.18D+03 IAcc=3 IRadAn=         5 AccDes= 0.00D+00
 Harris functional with IExCor=  402 and IRadAn=       5 diagonalized for initial guess.
 HarFok:  IExCor=  402 AccDes= 0.00D+00 IRadAn=         5 IDoV= 1 UseB2=F ITyADJ=14
 ICtDFT=  3500011 ScaDFX=  1.000000  1.000000  1.000000  1.000000
 FoFCou: FMM=F IPFlag=           0 FMFlag=      100000 FMFlg1=           0
         NFxFlg=           0 DoJE=T BraDBF=F KetDBF=T FulRan=T
         wScrn=  0.000000 ICntrl=       500 IOpCl=  0 I1Cent=   200000004 NGrid=           0
         NMat0=    1 NMatS0=      1 NMatT0=    0 NMatD0=    1 NMtDS0=    0 NMtDT0=    0
 Petite list used in FoFCou.
 Harris En= -1650.44212857546    
 JPrj=0 DoOrth=F DoCkMO=F.
 Initial guess <Sx>= 0.0000 <Sy>= 0.0000 <Sz>= 0.5000 <S**2>= 0.7500 S= 0.5000
 Leave Link  401 at Fri Jan 31 16:24:35 2025, MaxMem= 13421772800 cpu:              48.9 elap:               0.6
 (Enter /gpfs/fs1/soft/improv/software/custom-built/gaussian/g16/l502.exe)
 Integral symmetry usage will be decided dynamically.
 UHF open shell SCF:
 Using DIIS extrapolation, IDIIS=    10.
 NGot= 13421772800 LenX= 13421354398 LenY= 13421174181
 Requested convergence on RMS density matrix=1.00D-08 within 128 cycles.
 Requested convergence on MAX density matrix=1.00D-06.
 Requested convergence on             energy=1.00D-06.
 Level shift goal  0.100 maximum shift  0.100.
 No special actions if energy rises.
 Dynamic level shift is on during FON iterations.
 Fock matrices will be formed incrementally for  20 cycles.

 Cycle   1  Pass 1  IDiag  1:
 FoFJK:  IHMeth= 1 ICntrl=       0 DoSepK=F KAlg= 0 I1Cent=           0 FoldK=F
 IRaf= 980000000 NMat=       1 IRICut=       1 DoRegI=T DoRafI=F ISym2E= 0 IDoP0=0 IntGTp=1.
 FoFCou: FMM=F IPFlag=           0 FMFlag=      100000 FMFlg1=           0
         NFxFlg=           0 DoJE=F BraDBF=F KetDBF=F FulRan=T
         wScrn=  0.000000 ICntrl=         0 IOpCl=  1 I1Cent=           0 NGrid=           0
         NMat0=    1 NMatS0=      1 NMatT0=    0 NMatD0=    1 NMtDS0=    0 NMtDT0=    0
 Symmetry not used in FoFCou.
 E= -1649.85782532143    
 DIIS: error= 3.41D-02 at cycle   1 NSaved=   1.
 NSaved= 1 IEnMin= 1 EnMin= -1649.85782532143     IErMin= 1 ErrMin= 3.41D-02
 ErrMax= 3.41D-02  0.00D+00 EMaxC= 1.00D+00 BMatC= 3.87D+00 BMatP= 3.87D+00
 IDIUse=1 WtCom= 1.00D+00 WtEn= 0.00D+00
 Coeff-Com:  0.100D+01
 Coeff:      0.100D+01
 Gap=     0.434 Goal=     0.100 Shift=    0.000
 T= 1573. Gap= 0.114 NK=0 IS=    1 IE=  382 IFin=   50
          NO(<0.9)=   0  NV(>0.1)=   0     48.00e < EF      0.00e >EF  Err=7.1D-15
 Gap=     0.032 Goal=     0.100 Shift=    0.068
 T= 1573. Gap= 0.015 NK=0 IS=    1 IE=  382 IFin=   48
          NO(<0.9)=   1  NV(>0.1)=   1     46.81e < EF      0.19e >EF  Err=1.4D-14
 GapD=    0.032 DampG=0.250 DampE=0.250 DampFc=0.0625 IDamp=-1.
 Damping current iteration by 6.25D-02
 RMSDP=5.70D-03 MaxDP=6.32D-01              OVMax= 7.32D-01

 Cycle   2  Pass 1  IDiag  1:
 RMSU=  3.52D-04    CP:  9.97D-01
 E= -1649.98860746290     Delta-E=       -0.130782141470 Rises=F Damp=T
 DIIS: error= 2.73D-02 at cycle   2 NSaved=   2.
 NSaved= 2 IEnMin= 2 EnMin= -1649.98860746290     IErMin= 2 ErrMin= 2.73D-02
 ErrMax= 2.73D-02  0.00D+00 EMaxC= 1.00D+00 BMatC= 1.92D+00 BMatP= 3.87D+00
 IDIUse=1 WtCom= 1.00D+00 WtEn= 0.00D+00
 Coeff-Com: -0.198D+01 0.298D+01
 Coeff:     -0.198D+01 0.298D+01
 Gap=     0.138 Goal=     0.100 Shift=    0.000
 T= 1532. Gap= 0.203 NK=4 IS=   49 IE=   58 IFin=   48
          NO(<0.9)=   0  NV(>0.1)=   0     48.00e < EF      0.00e >EF  Err=0.0D+00
 Gap=     0.022 Goal=     0.100 Shift=    0.078
 T= 1532. Gap= 0.065 NK=2 IS=   42 IE=   57 IFin=   48
          NO(<0.9)=   0  NV(>0.1)=   0     47.00e < EF      0.00e >EF  Err=7.1D-15
 GapD=    0.022 DampG=0.250 DampE=0.500 DampFc=0.1250 IDamp=-1.
 Damping current iteration by 1.25D-01
 RMSDP=1.96D-03 MaxDP=8.51D-02 DE=-1.31D-01 OVMax= 9.00D-01

 Cycle   3  Pass 1  IDiag  1:
 RMSU=  2.18D-04    CP:  9.94D-01  1.30D+00
 E= -1650.05908611460     Delta-E=       -0.070478651704 Rises=F Damp=T
 DIIS: error= 2.39D-02 at cycle   3 NSaved=   3.
 NSaved= 3 IEnMin= 3 EnMin= -1650.05908611460     IErMin= 3 ErrMin= 2.39D-02
 ErrMax= 2.39D-02  0.00D+00 EMaxC= 1.00D+00 BMatC= 1.41D+00 BMatP= 1.92D+00
 IDIUse=1 WtCom= 1.00D+00 WtEn= 0.00D+00
 Coeff-Com: -0.990D+00-0.204D+01 0.403D+01
 Coeff:     -0.990D+00-0.204D+01 0.403D+01
 Gap=     0.215 Goal=     0.100 Shift=    0.000
 T= 1464. Gap= 0.211 NK=0 IS=   49 IE=  382 IFin=   48
          NO(<0.9)=   0  NV(>0.1)=   0     48.00e < EF      0.00e >EF  Err=0.0D+00
 Gap=     0.099 Goal=     0.100 Shift=    0.001
 T= 1464. Gap= 0.097 NK=0 IS=    1 IE=  382 IFin=   48
          NO(<0.9)=   0  NV(>0.1)=   0     47.00e < EF      0.00e >EF  Err=1.4D-14
 GapD=    0.099 DampG=0.500 DampE=0.500 DampFc=0.2500 IDamp=-1.
 Damping current iteration by 2.50D-01
 RMSDP=1.12D-03 MaxDP=5.76D-02 DE=-7.05D-02 OVMax= 9.61D-02

 Cycle   4  Pass 1  IDiag  1:
 RMSU=  1.58D-04    CP:  9.91D-01  1.76D+00  1.75D+00
 E= -1650.15967630900     Delta-E=       -0.100590194394 Rises=F Damp=T
 DIIS: error= 1.81D-02 at cycle   4 NSaved=   4.
 NSaved= 4 IEnMin= 4 EnMin= -1650.15967630900     IErMin= 4 ErrMin= 1.81D-02
 ErrMax= 1.81D-02  0.00D+00 EMaxC= 1.00D+00 BMatC= 8.24D-01 BMatP= 1.41D+00
 IDIUse=1 WtCom= 1.00D+00 WtEn= 0.00D+00
 Coeff-Com: -0.284D+00-0.848D+00-0.711D+00 0.284D+01
 Coeff:     -0.284D+00-0.848D+00-0.711D+00 0.284D+01
 Gap=     0.212 Goal=     0.100 Shift=    0.000
 T= 1340. Gap= 0.211 NK=4 IS=   49 IE=   57 IFin=   48
          NO(<0.9)=   0  NV(>0.1)=   0     48.00e < EF      0.00e >EF  Err=0.0D+00
 Gap=     0.114 Goal=     0.100 Shift=    0.000
 T= 1340. Gap= 0.112 NK=3 IS=   39 IE=   55 IFin=   48
          NO(<0.9)=   0  NV(>0.1)=   0     47.00e < EF      0.00e >EF  Err=0.0D+00
 GapD=    0.114 DampG=1.000 DampE=0.500 DampFc=0.5000 IDamp=-1.
 Damping current iteration by 5.00D-01
 RMSDP=8.75D-04 MaxDP=4.99D-02 DE=-1.01D-01 OVMax= 5.02D-02

 Cycle   5  Pass 1  IDiag  1:
 RMSU=  1.13D-04    CP:  9.87D-01  2.40D+00  2.99D+00  2.40D+00
 E= -1650.27981331558     Delta-E=       -0.120137006583 Rises=F Damp=T
 DIIS: error= 9.57D-03 at cycle   5 NSaved=   5.
 NSaved= 5 IEnMin= 5 EnMin= -1650.27981331558     IErMin= 5 ErrMin= 9.57D-03
 ErrMax= 9.57D-03  0.00D+00 EMaxC= 1.00D+00 BMatC= 2.69D-01 BMatP= 8.24D-01
 IDIUse=1 WtCom= 1.00D+00 WtEn= 0.00D+00
 Coeff-Com: -0.238D+00 0.733D-01-0.759D+00 0.705D+00 0.122D+01
 Coeff:     -0.238D+00 0.733D-01-0.759D+00 0.705D+00 0.122D+01
 Gap=     0.212 Goal=     0.100 Shift=    0.000
 T= 1163. Gap= 0.210 NK=4 IS=   49 IE=   57 IFin=   48
          NO(<0.9)=   0  NV(>0.1)=   0     48.00e < EF      0.00e >EF  Err=0.0D+00
 Gap=     0.115 Goal=     0.100 Shift=    0.000
 T= 1163. Gap= 0.115 NK=3 IS=   48 IE=   55 IFin=   47
          NO(<0.9)=   0  NV(>0.1)=   0     47.00e < EF      0.00e >EF  Err=0.0D+00
 GapD=    0.115 DampG=1.000 DampE=1.000 DampFc=1.0000 IDamp=-1.
 RMSDP=5.07D-04 MaxDP=2.96D-02 DE=-1.20D-01 OVMax= 1.98D-02

 Cycle   6  Pass 1  IDiag  1:
 RMSU=  3.48D-04    CP:  9.82D-01  3.00D+00  3.00D+00  3.00D+00  1.75D+00
 E= -1650.37585230229     Delta-E=       -0.096038986710 Rises=F Damp=F
 DIIS: error= 1.01D-03 at cycle   6 NSaved=   6.
 NSaved= 6 IEnMin= 6 EnMin= -1650.37585230229     IErMin= 6 ErrMin= 1.01D-03
 ErrMax= 1.01D-03  0.00D+00 EMaxC= 1.00D+00 BMatC= 2.75D-03 BMatP= 2.69D-01
 IDIUse=1 WtCom= 1.00D+00 WtEn= 0.00D+00
 Coeff-Com: -0.130D+00 0.298D+00-0.653D-01-0.495D+00 0.674D+00 0.717D+00
 Coeff:     -0.130D+00 0.298D+00-0.653D-01-0.495D+00 0.674D+00 0.717D+00
 Gap=     0.208 Goal=     0.100 Shift=    0.000
 T=  811. Gap= 0.208 NK=4 IS=   49 IE=   57 IFin=   48
          NO(<0.9)=   0  NV(>0.1)=   0     48.00e < EF      0.00e >EF  Err=0.0D+00
 Gap=     0.117 Goal=     0.100 Shift=    0.000
 T=  811. Gap= 0.117 NK=3 IS=   48 IE=   55 IFin=   47
          NO(<0.9)=   0  NV(>0.1)=   0     47.00e < EF      0.00e >EF  Err=0.0D+00
 GapD=    0.117 DampG=1.000 DampE=1.000 DampFc=1.0000 IDamp=-1.
 RMSDP=1.09D-04 MaxDP=8.42D-03 DE=-9.60D-02 OVMax= 1.71D-02

 Cycle   7  Pass 1  IDiag  1:
 RMSU=  8.71D-05    CP:  9.82D-01  3.00D+00  3.00D+00  3.00D+00  2.33D+00
                    CP:  1.02D+00
 E= -1650.37659522542     Delta-E=       -0.000742923126 Rises=F Damp=F
 DIIS: error= 6.34D-04 at cycle   7 NSaved=   7.
 NSaved= 7 IEnMin= 7 EnMin= -1650.37659522542     IErMin= 7 ErrMin= 6.34D-04
 ErrMax= 6.34D-04  0.00D+00 EMaxC= 1.00D+00 BMatC= 8.93D-04 BMatP= 2.75D-03
 IDIUse=1 WtCom= 1.00D+00 WtEn= 0.00D+00
 Coeff-Com: -0.249D-01 0.895D-01 0.709D-01-0.296D+00 0.211D+00 0.391D+00
 Coeff-Com:  0.559D+00
 Coeff:     -0.249D-01 0.895D-01 0.709D-01-0.296D+00 0.211D+00 0.391D+00
 Coeff:      0.559D+00
 Gap=     0.207 Goal=     0.100 Shift=    0.000
 Gap=     0.118 Goal=     0.100 Shift=    0.000
 RMSDP=4.99D-05 MaxDP=4.64D-03 DE=-7.43D-04 OVMax= 1.02D-02

 Cycle   8  Pass 1  IDiag  1:
 RMSU=  4.41D-05    CP:  9.82D-01  3.00D+00  3.00D+00  3.00D+00  2.52D+00
                    CP:  1.04D+00  1.04D+00
 E= -1650.37687078016     Delta-E=       -0.000275554743 Rises=F Damp=F
 DIIS: error= 2.54D-04 at cycle   8 NSaved=   8.
 NSaved= 8 IEnMin= 8 EnMin= -1650.37687078016     IErMin= 8 ErrMin= 2.54D-04
 ErrMax= 2.54D-04  0.00D+00 EMaxC= 1.00D+00 BMatC= 1.35D-04 BMatP= 8.93D-04
 IDIUse=1 WtCom= 1.00D+00 WtEn= 0.00D+00
 Coeff-Com:  0.234D-01-0.565D-01 0.471D-01 0.209D-01-0.675D-01-0.155D-02
 Coeff-Com:  0.256D+00 0.779D+00
 Coeff:      0.234D-01-0.565D-01 0.471D-01 0.209D-01-0.675D-01-0.155D-02
 Coeff:      0.256D+00 0.779D+00
 Gap=     0.207 Goal=     0.100 Shift=    0.000
 Gap=     0.119 Goal=     0.100 Shift=    0.000
 RMSDP=5.33D-05 MaxDP=5.25D-03 DE=-2.76D-04 OVMax= 1.32D-02

 Cycle   9  Pass 1  IDiag  1:
 RMSU=  2.89D-05    CP:  9.82D-01  3.00D+00  3.00D+00  3.00D+00  2.74D+00
                    CP:  1.06D+00  1.31D+00  1.65D+00
 E= -1650.37702441883     Delta-E=       -0.000153638676 Rises=F Damp=F
 DIIS: error= 2.34D-04 at cycle   9 NSaved=   9.
 NSaved= 9 IEnMin= 9 EnMin= -1650.37702441883     IErMin= 9 ErrMin= 2.34D-04
 ErrMax= 2.34D-04  0.00D+00 EMaxC= 1.00D+00 BMatC= 9.65D-05 BMatP= 1.35D-04
 IDIUse=1 WtCom= 1.00D+00 WtEn= 0.00D+00
 Coeff-Com:  0.758D-02-0.643D-01-0.114D-01 0.182D+00-0.154D+00-0.228D+00
 Coeff-Com: -0.235D+00 0.379D+00 0.112D+01
 Coeff:      0.758D-02-0.643D-01-0.114D-01 0.182D+00-0.154D+00-0.228D+00
 Coeff:     -0.235D+00 0.379D+00 0.112D+01
 Gap=     0.205 Goal=     0.100 Shift=    0.000
 Gap=     0.119 Goal=     0.100 Shift=    0.000
 RMSDP=8.65D-05 MaxDP=7.70D-03 DE=-1.54D-04 OVMax= 2.27D-02

 Cycle  10  Pass 1  IDiag  1:
 RMSU=  2.25D-05    CP:  9.82D-01  3.00D+00  3.00D+00  3.00D+00  3.00D+00
                    CP:  1.09D+00  1.84D+00  2.92D+00  1.88D+00
 E= -1650.37720974504     Delta-E=       -0.000185326204 Rises=F Damp=F
 DIIS: error= 1.64D-04 at cycle  10 NSaved=  10.
 NSaved=10 IEnMin=10 EnMin= -1650.37720974504     IErMin=10 ErrMin= 1.64D-04
 ErrMax= 1.64D-04  0.00D+00 EMaxC= 1.00D+00 BMatC= 3.06D-05 BMatP= 9.65D-05
 IDIUse=1 WtCom= 1.00D+00 WtEn= 0.00D+00
 Coeff-Com: -0.338D-02-0.225D-01-0.174D-02 0.740D-01-0.583D-01-0.901D-01
 Coeff-Com: -0.124D+00 0.383D-01 0.428D+00 0.760D+00
 Coeff:     -0.338D-02-0.225D-01-0.174D-02 0.740D-01-0.583D-01-0.901D-01
 Coeff:     -0.124D+00 0.383D-01 0.428D+00 0.760D+00
 Gap=     0.204 Goal=     0.100 Shift=    0.000
 Gap=     0.119 Goal=     0.100 Shift=    0.000
 RMSDP=4.63D-05 MaxDP=4.65D-03 DE=-1.85D-04 OVMax= 1.31D-02

 Cycle  11  Pass 1  IDiag  1:
 RMSU=  2.67D-05    CP:  9.82D-01  3.00D+00  3.00D+00  3.00D+00  3.00D+00
                    CP:  1.10D+00  2.09D+00  3.00D+00  2.55D+00  1.85D+00
 E= -1650.37728552029     Delta-E=       -0.000075775254 Rises=F Damp=F
 DIIS: error= 1.48D-04 at cycle  11 NSaved=  11.
 NSaved=11 IEnMin=11 EnMin= -1650.37728552029     IErMin=11 ErrMin= 1.48D-04
 ErrMax= 1.48D-04  0.00D+00 EMaxC= 1.00D+00 BMatC= 2.72D-05 BMatP= 3.06D-05
 IDIUse=1 WtCom= 1.00D+00 WtEn= 0.00D+00
 Coeff-Com: -0.723D-02 0.154D-01 0.139D-01-0.577D-01 0.562D-01 0.855D-01
 Coeff-Com:  0.676D-01-0.222D+00-0.446D+00 0.634D+00 0.861D+00
 Coeff:     -0.723D-02 0.154D-01 0.139D-01-0.577D-01 0.562D-01 0.855D-01
 Coeff:      0.676D-01-0.222D+00-0.446D+00 0.634D+00 0.861D+00
 Gap=     0.204 Goal=     0.100 Shift=    0.000
 Gap=     0.119 Goal=     0.100 Shift=    0.000
 RMSDP=6.80D-05 MaxDP=6.95D-03 DE=-7.58D-05 OVMax= 1.99D-02

 Cycle  12  Pass 1  IDiag  1:
 RMSU=  2.19D-05    CP:  9.81D-01  3.00D+00  3.00D+00  3.00D+00  3.00D+00
                    CP:  1.12D+00  2.42D+00  3.00D+00  3.00D+00  3.00D+00
                    CP:  2.47D+00
 E= -1650.37739191906     Delta-E=       -0.000106398773 Rises=F Damp=F
 DIIS: error= 1.53D-04 at cycle  12 NSaved=  12.
 NSaved=12 IEnMin=12 EnMin= -1650.37739191906     IErMin=11 ErrMin= 1.48D-04
 ErrMax= 1.53D-04  0.00D+00 EMaxC= 1.00D+00 BMatC= 2.37D-05 BMatP= 2.72D-05
 IDIUse=1 WtCom= 1.00D+00 WtEn= 0.00D+00
 Coeff-Com: -0.427D-02 0.999D-02 0.120D-01-0.516D-01 0.558D-01 0.806D-01
 Coeff-Com:  0.676D-01-0.151D+00-0.366D+00 0.198D+00 0.391D+00 0.758D+00
 Coeff:     -0.427D-02 0.999D-02 0.120D-01-0.516D-01 0.558D-01 0.806D-01
 Coeff:      0.676D-01-0.151D+00-0.366D+00 0.198D+00 0.391D+00 0.758D+00
 Gap=     0.204 Goal=     0.100 Shift=    0.000
 Gap=     0.119 Goal=     0.100 Shift=    0.000
 RMSDP=5.00D-05 MaxDP=5.16D-03 DE=-1.06D-04 OVMax= 1.51D-02

 Cycle  13  Pass 1  IDiag  1:
 RMSU=  2.33D-05    CP:  9.81D-01  3.00D+00  3.00D+00  3.00D+00  3.00D+00
                    CP:  1.12D+00  2.64D+00  3.00D+00  3.00D+00  3.00D+00
                    CP:  3.00D+00  2.45D+00
 E= -1650.37746848892     Delta-E=       -0.000076569853 Rises=F Damp=F
 DIIS: error= 1.56D-04 at cycle  13 NSaved=  13.
 NSaved=13 IEnMin=13 EnMin= -1650.37746848892     IErMin=11 ErrMin= 1.48D-04
 ErrMax= 1.56D-04  0.00D+00 EMaxC= 1.00D+00 BMatC= 2.14D-05 BMatP= 2.37D-05
 IDIUse=1 WtCom= 1.00D+00 WtEn= 0.00D+00
 Coeff-Com: -0.145D-02-0.352D-02 0.627D-02-0.145D-01 0.295D-01 0.363D-01
 Coeff-Com:  0.279D-01-0.122D-01-0.852D-01-0.271D+00-0.313D+00 0.740D+00
 Coeff-Com:  0.860D+00
 Coeff:     -0.145D-02-0.352D-02 0.627D-02-0.145D-01 0.295D-01 0.363D-01
 Coeff:      0.279D-01-0.122D-01-0.852D-01-0.271D+00-0.313D+00 0.740D+00
 Coeff:      0.860D+00
 Gap=     0.204 Goal=     0.100 Shift=    0.000
 Gap=     0.119 Goal=     0.100 Shift=    0.000
 RMSDP=8.29D-05 MaxDP=8.55D-03 DE=-7.66D-05 OVMax= 2.56D-02

 Cycle  14  Pass 1  IDiag  1:
 RMSU=  4.54D-05    CP:  9.81D-01  3.00D+00  3.00D+00  3.00D+00  3.00D+00
                    CP:  1.13D+00  3.00D+00  3.00D+00  3.00D+00  3.00D+00
                    CP:  3.00D+00  3.00D+00  3.00D+00
 E= -1650.37759514646     Delta-E=       -0.000126657538 Rises=F Damp=F
 DIIS: error= 1.61D-04 at cycle  14 NSaved=  14.
 NSaved=14 IEnMin=14 EnMin= -1650.37759514646     IErMin=11 ErrMin= 1.48D-04
 ErrMax= 1.61D-04  0.00D+00 EMaxC= 1.00D+00 BMatC= 2.00D-05 BMatP= 2.14D-05
 IDIUse=1 WtCom= 1.00D+00 WtEn= 0.00D+00
 Coeff-Com: -0.324D-02-0.239D-03 0.843D-02-0.216D-01 0.342D-01 0.466D-01
 Coeff-Com:  0.395D-01-0.504D-01-0.160D+00-0.105D+00-0.974D-01 0.458D+00
 Coeff-Com:  0.251D+00 0.600D+00
 Coeff:     -0.324D-02-0.239D-03 0.843D-02-0.216D-01 0.342D-01 0.466D-01
 Coeff:      0.395D-01-0.504D-01-0.160D+00-0.105D+00-0.974D-01 0.458D+00
 Coeff:      0.251D+00 0.600D+00
 Gap=     0.203 Goal=     0.100 Shift=    0.000
 Gap=     0.119 Goal=     0.100 Shift=    0.000
 RMSDP=3.27D-05 MaxDP=3.43D-03 DE=-1.27D-04 OVMax= 1.05D-02

 Cycle  15  Pass 1  IDiag  1:
 RMSU=  2.19D-05    CP:  9.81D-01  3.00D+00  3.00D+00  3.00D+00  3.00D+00
                    CP:  1.13D+00  3.00D+00  3.00D+00  3.00D+00  3.00D+00
                    CP:  3.00D+00  3.00D+00  3.00D+00  1.53D+00
 E= -1650.37764532684     Delta-E=       -0.000050180383 Rises=F Damp=F
 DIIS: error= 1.60D-04 at cycle  15 NSaved=  15.
 NSaved=15 IEnMin=15 EnMin= -1650.37764532684     IErMin=11 ErrMin= 1.48D-04
 ErrMax= 1.60D-04  0.00D+00 EMaxC= 1.00D+00 BMatC= 2.08D-05 BMatP= 2.00D-05
 IDIUse=1 WtCom= 1.00D+00 WtEn= 0.00D+00
 Coeff-Com: -0.244D-02-0.403D-02 0.629D-02-0.102D-01 0.262D-01 0.324D-01
 Coeff-Com:  0.282D-01 0.212D-02-0.624D-01-0.310D+00-0.372D+00 0.601D+00
 Coeff-Com:  0.850D+00 0.151D+01-0.129D+01
 Coeff:     -0.244D-02-0.403D-02 0.629D-02-0.102D-01 0.262D-01 0.324D-01
 Coeff:      0.282D-01 0.212D-02-0.624D-01-0.310D+00-0.372D+00 0.601D+00
 Coeff:      0.850D+00 0.151D+01-0.129D+01
 Gap=     0.204 Goal=     0.100 Shift=    0.000
 Gap=     0.119 Goal=     0.100 Shift=    0.000
 RMSDP=4.49D-05 MaxDP=4.89D-03 DE=-5.02D-05 OVMax= 1.47D-02

 Cycle  16  Pass 1  IDiag  1:
 RMSU=  3.64D-06    CP:  9.81D-01  3.00D+00  3.00D+00  3.00D+00  3.00D+00
                    CP:  1.13D+00  2.95D+00  3.00D+00  3.00D+00  3.00D+00
                    CP:  3.00D+00  3.00D+00  2.90D+00  8.06D-01 -1.78D-01
 E= -1650.37757590818     Delta-E=        0.000069418658 Rises=F Damp=F
 DIIS: error= 1.56D-04 at cycle  16 NSaved=  16.
 NSaved=16 IEnMin=15 EnMin= -1650.37764532684     IErMin=11 ErrMin= 1.48D-04
 ErrMax= 1.56D-04  0.00D+00 EMaxC= 1.00D+00 BMatC= 2.12D-05 BMatP= 2.00D-05
 IDIUse=1 WtCom= 1.00D+00 WtEn= 0.00D+00
 Coeff-Com: -0.343D-02-0.152D-02 0.909D-02-0.226D-01 0.395D-01 0.538D-01
 Coeff-Com:  0.542D-01-0.285D-01-0.161D+00-0.276D+00-0.300D+00 0.497D+00
 Coeff-Com:  0.807D+00 0.344D+01-0.629D+01 0.318D+01
 Coeff:     -0.343D-02-0.152D-02 0.909D-02-0.226D-01 0.395D-01 0.538D-01
 Coeff:      0.542D-01-0.285D-01-0.161D+00-0.276D+00-0.300D+00 0.497D+00
 Coeff:      0.807D+00 0.344D+01-0.629D+01 0.318D+01
 Gap=     0.204 Goal=   None    Shift=    0.000
 Gap=     0.120 Goal=   None    Shift=    0.000
 RMSDP=1.85D-04 MaxDP=2.14D-02 DE= 6.94D-05 OVMax= 5.89D-02

 Cycle  17  Pass 1  IDiag  1:
 RMSU=  2.77D-05    CP:  9.82D-01  3.00D+00  3.00D+00  3.00D+00  3.00D+00
                    CP:  1.11D+00  2.17D+00  3.00D+00  2.70D+00  1.86D+00
                    CP:  1.25D+00 -4.50D-02 -1.72D-01 -1.69D-02 -1.33D-01
                    CP:  3.00D+00
 E= -1650.37729253635     Delta-E=        0.000283371829 Rises=F Damp=F
 DIIS: error= 1.32D-04 at cycle  17 NSaved=  17.
 NSaved=17 IEnMin=15 EnMin= -1650.37764532684     IErMin=17 ErrMin= 1.32D-04
 ErrMax= 1.32D-04  0.00D+00 EMaxC= 1.00D+00 BMatC= 3.33D-05 BMatP= 2.00D-05
 IDIUse=1 WtCom= 1.00D+00 WtEn= 0.00D+00
 Coeff-Com: -0.391D-02 0.139D-02 0.111D-01-0.350D-01 0.513D-01 0.715D-01
 Coeff-Com:  0.696D-01-0.687D-01-0.249D+00-0.183D+00-0.155D+00 0.502D+00
 Coeff-Com:  0.621D+00 0.290D+01-0.579D+01 0.310D+01 0.154D+00
 Coeff:     -0.391D-02 0.139D-02 0.111D-01-0.350D-01 0.513D-01 0.715D-01
 Coeff:      0.696D-01-0.687D-01-0.249D+00-0.183D+00-0.155D+00 0.502D+00
 Coeff:      0.621D+00 0.290D+01-0.579D+01 0.310D+01 0.154D+00
 Gap=     0.204 Goal=   None    Shift=    0.000
 Gap=     0.121 Goal=   None    Shift=    0.000
 RMSDP=2.20D-05 MaxDP=2.68D-03 DE= 2.83D-04 OVMax= 7.03D-03

 Cycle  18  Pass 1  IDiag  1:
 RMSU=  3.19D-06    CP:  9.82D-01  3.00D+00  3.00D+00  3.00D+00  3.00D+00
                    CP:  1.11D+00  2.08D+00  3.00D+00  2.38D+00  1.33D+00
                    CP:  8.04D-01 -1.27D-01 -1.51D-01 -2.75D-02 -1.48D-01
                    CP:  3.00D+00  1.19D+00
 E= -1650.37725963450     Delta-E=        0.000032901852 Rises=F Damp=F
 DIIS: error= 1.32D-04 at cycle  18 NSaved=  18.
 NSaved=18 IEnMin=15 EnMin= -1650.37764532684     IErMin=17 ErrMin= 1.32D-04
 ErrMax= 1.32D-04  0.00D+00 EMaxC= 1.00D+00 BMatC= 3.26D-05 BMatP= 2.00D-05
 IDIUse=1 WtCom= 1.00D+00 WtEn= 0.00D+00
 Large coefficients: NSaved= 18 BigCof=   15.32 CofMax=   10.00 Det=-9.80D-09
 Inversion failed.  Reducing to 17 matrices.
 Large coefficients: NSaved= 17 BigCof=   15.61 CofMax=   10.00 Det=-1.00D-08
 Inversion failed.  Reducing to 16 matrices.
 Large coefficients: NSaved= 16 BigCof=   15.08 CofMax=   10.00 Det=-1.04D-08
 Inversion failed.  Reducing to 15 matrices.
 Large coefficients: NSaved= 15 BigCof=   15.29 CofMax=   10.00 Det=-1.05D-08
 Inversion failed.  Reducing to 14 matrices.
 Large coefficients: NSaved= 14 BigCof=   16.21 CofMax=   10.00 Det=-1.11D-08
 Inversion failed.  Reducing to 13 matrices.
 Large coefficients: NSaved= 13 BigCof=   16.22 CofMax=   10.00 Det=-1.11D-08
 Inversion failed.  Reducing to 12 matrices.
 Large coefficients: NSaved= 12 BigCof=   16.25 CofMax=   10.00 Det=-1.11D-08
 Inversion failed.  Reducing to 11 matrices.
 Large coefficients: NSaved= 11 BigCof=   15.65 CofMax=   10.00 Det=-1.23D-08
 Inversion failed.  Reducing to 10 matrices.
 Large coefficients: NSaved= 10 BigCof=   14.96 CofMax=   10.00 Det=-1.34D-08
 Inversion failed.  Reducing to  9 matrices.
 Large coefficients: NSaved=  9 BigCof=   14.96 CofMax=   10.00 Det=-1.34D-08
 Inversion failed.  Reducing to  8 matrices.
 Large coefficients: NSaved=  8 BigCof=   15.04 CofMax=   10.00 Det=-1.38D-08
 Inversion failed.  Reducing to  7 matrices.
 Large coefficients: NSaved=  7 BigCof=   14.92 CofMax=   10.00 Det=-1.39D-08
 Inversion failed.  Reducing to  6 matrices.
 Large coefficients: NSaved=  6 BigCof=   14.86 CofMax=   10.00 Det=-1.40D-08
 Inversion failed.  Reducing to  5 matrices.
 Large coefficients: NSaved=  5 BigCof=   14.71 CofMax=   10.00 Det=-1.47D-08
 Inversion failed.  Reducing to  4 matrices.
 Coeff-Com:  0.195D+01-0.702D+00 0.180D+01-0.204D+01
 Coeff:      0.195D+01-0.702D+00 0.180D+01-0.204D+01
 Gap=     0.203 Goal=   None    Shift=    0.000
 Gap=     0.117 Goal=   None    Shift=    0.000
 RMSDP=3.31D-04 MaxDP=3.80D-02 DE= 3.29D-05 OVMax= 1.10D-01

 Cycle  19  Pass 1  IDiag  1:
 RMSU=  1.20D-05    CP:  9.81D-01  3.00D+00  3.00D+00  3.00D+00  3.00D+00
                    CP:  1.13D+00  3.00D+00  3.00D+00  3.00D+00  3.00D+00
                    CP:  3.00D+00  3.00D+00  3.00D+00  2.82D+00  3.00D+00
                    CP: -2.14D+00 -1.85D-01  2.58D-01
 E= -1650.37777028289     Delta-E=       -0.000510648391 Rises=F Damp=F
 DIIS: error= 1.54D-04 at cycle  19 NSaved=   5.
 NSaved= 5 IEnMin= 5 EnMin= -1650.37777028289     IErMin= 3 ErrMin= 1.32D-04
 ErrMax= 1.54D-04  0.00D+00 EMaxC= 1.00D+00 BMatC= 2.92D-05 BMatP= 2.00D-05
 IDIUse=1 WtCom= 1.00D+00 WtEn= 0.00D+00
 Coeff-Com:  0.350D+01-0.253D+01 0.400D+01-0.467D+01 0.692D+00
 Coeff:      0.350D+01-0.253D+01 0.400D+01-0.467D+01 0.692D+00
 Gap=     0.203 Goal=     0.100 Shift=    0.000
 Gap=     0.121 Goal=     0.100 Shift=    0.000
 RMSDP=1.54D-04 MaxDP=1.66D-02 DE=-5.11D-04 OVMax= 5.15D-02

 Cycle  20  Pass 1  IDiag  1:
 RMSU=  1.33D-04    CP:  9.81D-01  3.00D+00  3.00D+00  3.00D+00  3.00D+00
                    CP:  1.12D+00  3.00D+00  3.00D+00  3.00D+00  3.00D+00
                    CP:  3.00D+00  3.00D+00  3.00D+00  3.00D+00  3.00D+00
                    CP: -3.00D+00 -7.08D-01 -4.35D-01  3.00D+00
 E= -1650.37801576096     Delta-E=       -0.000245478072 Rises=F Damp=F
 DIIS: error= 1.46D-04 at cycle  20 NSaved=   6.
 NSaved= 6 IEnMin= 6 EnMin= -1650.37801576096     IErMin= 3 ErrMin= 1.32D-04
 ErrMax= 1.46D-04  0.00D+00 EMaxC= 1.00D+00 BMatC= 6.18D-05 BMatP= 2.00D-05
 IDIUse=1 WtCom= 1.00D+00 WtEn= 0.00D+00
 Coeff-Com:  0.368D+01-0.215D+01 0.373D+01-0.477D+01 0.974D-01 0.413D+00
 Coeff:      0.368D+01-0.215D+01 0.373D+01-0.477D+01 0.974D-01 0.413D+00
 Gap=     0.202 Goal=     0.100 Shift=    0.000
 Gap=     0.123 Goal=     0.100 Shift=    0.000
 RMSDP=1.26D-04 MaxDP=1.50D-02 DE=-2.45D-04 OVMax= 4.10D-02

 Cycle  21  Pass 1  IDiag  1:
 Restarting incremental Fock formation.
 E= -1650.37821861449     Delta-E=       -0.000202853527 Rises=F Damp=F
 DIIS: error= 2.14D-04 at cycle  21 NSaved=   7.
 NSaved= 7 IEnMin= 7 EnMin= -1650.37821861449     IErMin= 3 ErrMin= 1.32D-04
 ErrMax= 2.14D-04  0.00D+00 EMaxC= 1.00D+00 BMatC= 1.24D-04 BMatP= 2.00D-05
 IDIUse=1 WtCom= 1.00D+00 WtEn= 0.00D+00
 Coeff-Com: -0.138D+01 0.679D+01-0.529D+01 0.403D+01-0.323D+01-0.224D+01
 Coeff-Com:  0.232D+01
 Coeff:     -0.138D+01 0.679D+01-0.529D+01 0.403D+01-0.323D+01-0.224D+01
 Coeff:      0.232D+01
 Gap=     0.203 Goal=     0.100 Shift=    0.000
 Gap=     0.117 Goal=     0.100 Shift=    0.000
 RMSDP=3.10D-05 MaxDP=3.31D-03 DE=-2.03D-04 OVMax= 8.22D-03

 Cycle  22  Pass 1  IDiag  1:
 RMSU=  3.10D-05    CP:  1.00D+00
 E= -1650.37820040083     Delta-E=        0.000018213658 Rises=F Damp=F
 DIIS: error= 1.96D-04 at cycle  22 NSaved=   8.
 NSaved= 8 IEnMin= 7 EnMin= -1650.37821861449     IErMin= 3 ErrMin= 1.32D-04
 ErrMax= 1.96D-04  0.00D+00 EMaxC= 1.00D+00 BMatC= 3.17D-05 BMatP= 2.00D-05
 IDIUse=1 WtCom= 1.00D+00 WtEn= 0.00D+00
 Coeff-Com: -0.838D+00 0.611D+01-0.322D+01 0.176D+01-0.268D+01-0.156D+01
 Coeff-Com:  0.178D+01-0.363D+00
 Coeff:     -0.838D+00 0.611D+01-0.322D+01 0.176D+01-0.268D+01-0.156D+01
 Coeff:      0.178D+01-0.363D+00
 Gap=     0.203 Goal=   None    Shift=    0.000
 Gap=     0.120 Goal=   None    Shift=    0.000
 RMSDP=4.22D-05 MaxDP=5.20D-03 DE= 1.82D-05 OVMax= 1.34D-02

 Cycle  23  Pass 1  IDiag  1:
 RMSU=  3.92D-05    CP:  1.00D+00  1.51D+00
 E= -1650.37813073272     Delta-E=        0.000069668110 Rises=F Damp=F
 DIIS: error= 1.66D-04 at cycle  23 NSaved=   9.
 NSaved= 9 IEnMin= 7 EnMin= -1650.37821861449     IErMin= 3 ErrMin= 1.32D-04
 ErrMax= 1.66D-04  0.00D+00 EMaxC= 1.00D+00 BMatC= 3.20D-05 BMatP= 2.00D-05
 IDIUse=1 WtCom= 1.00D+00 WtEn= 0.00D+00
 Large coefficients: NSaved=  9 BigCof=   11.96 CofMax=   10.00 Det=-1.36D-08
 Inversion failed.  Reducing to  8 matrices.
 Large coefficients: NSaved=  8 BigCof=   13.03 CofMax=   10.00 Det=-3.34D-08
 Inversion failed.  Reducing to  7 matrices.
 Coeff-Com: -0.331D+01 0.684D+01-0.412D+00-0.175D+01-0.126D+00-0.361D+01
 Coeff-Com:  0.337D+01
 Coeff:     -0.331D+01 0.684D+01-0.412D+00-0.175D+01-0.126D+00-0.361D+01
 Coeff:      0.337D+01
 Gap=     0.204 Goal=   None    Shift=    0.000
 Gap=     0.115 Goal=   None    Shift=    0.000
 RMSDP=7.89D-04 MaxDP=9.34D-02 DE= 6.97D-05 OVMax= 2.52D-01

 Cycle  24  Pass 1  IDiag  1:
 RMSU=  7.03D-04    CP:  9.98D-01  3.00D+00  3.00D+00
 E= -1650.37680618516     Delta-E=        0.001324547567 Rises=F Damp=F
 DIIS: error= 5.04D-04 at cycle  24 NSaved=   8.
 NSaved= 8 IEnMin= 5 EnMin= -1650.37821861449     IErMin= 4 ErrMin= 1.46D-04
 ErrMax= 5.04D-04  0.00D+00 EMaxC= 1.00D+00 BMatC= 5.77D-04 BMatP= 2.00D-05
 IDIUse=1 WtCom= 1.00D+00 WtEn= 0.00D+00
 Coeff-Com: -0.173D+00 0.145D+01 0.587D+00 0.695D+00-0.719D+00-0.273D+01
 Coeff-Com:  0.221D+01-0.320D+00
 Coeff:     -0.173D+00 0.145D+01 0.587D+00 0.695D+00-0.719D+00-0.273D+01
 Coeff:      0.221D+01-0.320D+00
 Gap=     0.203 Goal=   None    Shift=    0.000
 Gap=     0.125 Goal=   None    Shift=    0.000
 RMSDP=3.98D-04 MaxDP=5.25D-02 DE= 1.32D-03 OVMax= 1.23D-01

 Cycle  25  Pass 1  IDiag  1:
 RMSU=  5.26D-05    CP:  1.00D+00  3.00D+00  3.00D+00  4.39D-01
 E= -1650.37746437014     Delta-E=       -0.000658184983 Rises=F Damp=F
 DIIS: error= 2.62D-04 at cycle  25 NSaved=   9.
 NSaved= 9 IEnMin= 5 EnMin= -1650.37821861449     IErMin= 4 ErrMin= 1.46D-04
 ErrMax= 2.62D-04  0.00D+00 EMaxC= 1.00D+00 BMatC= 1.72D-04 BMatP= 2.00D-05
 IDIUse=1 WtCom= 1.00D+00 WtEn= 0.00D+00
 Coeff-Com: -0.811D+00 0.141D+01 0.976D+00 0.870D+00-0.124D+01-0.256D+01
 Coeff-Com:  0.213D+01-0.603D+00 0.838D+00
 Coeff:     -0.811D+00 0.141D+01 0.976D+00 0.870D+00-0.124D+01-0.256D+01
 Coeff:      0.213D+01-0.603D+00 0.838D+00
 Gap=     0.203 Goal=   None    Shift=    0.000
 Gap=     0.129 Goal=   None    Shift=    0.000
 RMSDP=1.47D-05 MaxDP=1.48D-03 DE=-6.58D-04 OVMax= 3.56D-03

 Cycle  26  Pass 1  IDiag  1:
 RMSU=  1.28D-05    CP:  9.99D-01  3.00D+00  3.00D+00  4.45D-01  1.11D+00
 E= -1650.37742996437     Delta-E=        0.000034405771 Rises=F Damp=F
 DIIS: error= 3.61D-04 at cycle  26 NSaved=  10.
 NSaved=10 IEnMin= 5 EnMin= -1650.37821861449     IErMin= 4 ErrMin= 1.46D-04
 ErrMax= 3.61D-04  0.00D+00 EMaxC= 1.00D+00 BMatC= 3.38D-04 BMatP= 2.00D-05
 IDIUse=1 WtCom= 1.00D+00 WtEn= 0.00D+00
 Coeff-Com: -0.817D+00 0.134D+01 0.103D+01 0.888D+00-0.131D+01-0.249D+01
 Coeff-Com:  0.208D+01-0.645D+00 0.850D+00 0.836D-01
 Coeff:     -0.817D+00 0.134D+01 0.103D+01 0.888D+00-0.131D+01-0.249D+01
 Coeff:      0.208D+01-0.645D+00 0.850D+00 0.836D-01
 Gap=     0.203 Goal=   None    Shift=    0.000
 Gap=     0.129 Goal=   None    Shift=    0.000
 RMSDP=4.25D-06 MaxDP=5.90D-04 DE= 3.44D-05 OVMax= 1.44D-03

 Cycle  27  Pass 1  IDiag  1:
 RMSU=  6.03D-07    CP:  1.00D+00  3.00D+00  3.00D+00  4.40D-01  1.13D+00
                    CP:  1.17D+00
 E= -1650.37743179563     Delta-E=       -0.000001831260 Rises=F Damp=F
 DIIS: error= 3.71D-04 at cycle  27 NSaved=  11.
 NSaved=11 IEnMin= 5 EnMin= -1650.37821861449     IErMin= 4 ErrMin= 1.46D-04
 ErrMax= 3.71D-04  0.00D+00 EMaxC= 1.00D+00 BMatC= 3.57D-04 BMatP= 2.00D-05
 IDIUse=1 WtCom= 1.00D+00 WtEn= 0.00D+00
 Large coefficients: NSaved= 11 BigCof=   13.25 CofMax=   10.00 Det=-1.46D-09
 Inversion failed.  Reducing to 10 matrices.
 Large coefficients: NSaved= 10 BigCof=   20.81 CofMax=   10.00 Det=-1.68D-09
 Inversion failed.  Reducing to  9 matrices.
 Coeff-Com: -0.390D+00 0.232D+01 0.151D+00 0.417D+00-0.190D+00-0.333D+01
 Coeff-Com:  0.267D+01-0.374D+00-0.278D+00
 Coeff:     -0.390D+00 0.232D+01 0.151D+00 0.417D+00-0.190D+00-0.333D+01
 Coeff:      0.267D+01-0.374D+00-0.278D+00
 Gap=     0.203 Goal=   None    Shift=    0.000
 Gap=     0.124 Goal=   None    Shift=    0.000
 RMSDP=6.93D-05 MaxDP=9.70D-03 DE=-1.83D-06 OVMax= 2.44D-02

 Cycle  28  Pass 1  IDiag  1:
 RMSU=  4.01D-06    CP:  9.99D-01  3.00D+00  3.00D+00  5.23D-01  8.21D-01
                    CP: -1.40D+00 -3.00D+00
 E= -1650.37738826961     Delta-E=        0.000043526023 Rises=F Damp=F
 DIIS: error= 2.10D-04 at cycle  28 NSaved=  10.
 NSaved=10 IEnMin= 5 EnMin= -1650.37821861449     IErMin= 4 ErrMin= 1.46D-04
 ErrMax= 2.10D-04  0.00D+00 EMaxC= 1.00D+00 BMatC= 1.03D-04 BMatP= 2.00D-05
 IDIUse=1 WtCom= 1.00D+00 WtEn= 0.00D+00
 Coeff-Com: -0.422D+00 0.739D+00 0.401D+00 0.116D+01-0.201D+00-0.419D+01
 Coeff-Com:  0.321D+01 0.750D+01-0.926D+01 0.207D+01
 Coeff:     -0.422D+00 0.739D+00 0.401D+00 0.116D+01-0.201D+00-0.419D+01
 Coeff:      0.321D+01 0.750D+01-0.926D+01 0.207D+01
 Gap=     0.204 Goal=   None    Shift=    0.000
 Gap=     0.125 Goal=   None    Shift=    0.000
 RMSDP=1.83D-04 MaxDP=2.55D-02 DE= 4.35D-05 OVMax= 5.96D-02

 Cycle  29  Pass 1  IDiag  1:
 RMSU=  1.43D-05    CP:  9.99D-01  3.00D+00  3.00D+00  7.74D-01  1.18D-01
                    CP: -3.00D+00 -3.00D+00  3.00D+00
 E= -1650.37712231234     Delta-E=        0.000265957268 Rises=F Damp=F
 DIIS: error= 2.68D-04 at cycle  29 NSaved=  11.
 NSaved=11 IEnMin= 5 EnMin= -1650.37821861449     IErMin= 4 ErrMin= 1.46D-04
 ErrMax= 2.68D-04  0.00D+00 EMaxC= 1.00D+00 BMatC= 1.83D-04 BMatP= 2.00D-05
 IDIUse=1 WtCom= 1.00D+00 WtEn= 0.00D+00
 Large coefficients: NSaved= 11 BigCof=   14.31 CofMax=   10.00 Det=-4.35D-09
 Inversion failed.  Reducing to 10 matrices.
 Coeff-Com: -0.645D+00 0.166D+01 0.208D+00 0.778D+00-0.901D-01-0.403D+01
 Coeff-Com:  0.316D+01-0.180D+01 0.149D+01 0.273D+00
 Coeff:     -0.645D+00 0.166D+01 0.208D+00 0.778D+00-0.901D-01-0.403D+01
 Coeff:      0.316D+01-0.180D+01 0.149D+01 0.273D+00
 Gap=     0.204 Goal=   None    Shift=    0.000
 Gap=     0.125 Goal=   None    Shift=    0.000
 RMSDP=9.57D-06 MaxDP=1.15D-03 DE= 2.66D-04 OVMax= 2.56D-03

 Cycle  30  Pass 1  IDiag  1:
 RMSU=  2.39D-06    CP:  9.99D-01  3.00D+00  3.00D+00  7.61D-01  1.35D-01
                    CP: -3.00D+00 -3.00D+00  3.00D+00  9.97D-01
 E= -1650.37714019789     Delta-E=       -0.000017885553 Rises=F Damp=F
 DIIS: error= 2.48D-04 at cycle  30 NSaved=  11.
 NSaved=11 IEnMin= 5 EnMin= -1650.37821861449     IErMin= 4 ErrMin= 1.46D-04
 ErrMax= 2.48D-04  0.00D+00 EMaxC= 1.00D+00 BMatC= 1.56D-04 BMatP= 2.00D-05
 IDIUse=1 WtCom= 1.00D+00 WtEn= 0.00D+00
 Coeff-Com:  0.430D+00-0.800D+00 0.262D+00 0.163D+01 0.247D+00-0.491D+01
 Coeff-Com:  0.364D+01-0.369D+01 0.259D+01 0.458D+00 0.114D+01
 Coeff:      0.430D+00-0.800D+00 0.262D+00 0.163D+01 0.247D+00-0.491D+01
 Coeff:      0.364D+01-0.369D+01 0.259D+01 0.458D+00 0.114D+01
 Gap=     0.205 Goal=   None    Shift=    0.000
 Gap=     0.127 Goal=   None    Shift=    0.000
 RMSDP=2.91D-04 MaxDP=4.34D-02 DE=-1.79D-05 OVMax= 8.15D-02

 Cycle  31  Pass 1  IDiag  1:
 RMSU=  3.16D-05    CP:  9.98D-01  3.00D+00  3.00D+00  1.13D+00 -2.00D+00
                    CP: -3.00D+00 -3.00D+00  3.00D+00  3.00D+00  3.00D+00
 E= -1650.37676093967     Delta-E=        0.000379258218 Rises=F Damp=F
 DIIS: error= 3.58D-04 at cycle  31 NSaved=  12.
 NSaved=12 IEnMin= 5 EnMin= -1650.37821861449     IErMin= 4 ErrMin= 1.46D-04
 ErrMax= 3.58D-04  0.00D+00 EMaxC= 1.00D+00 BMatC= 3.05D-04 BMatP= 2.00D-05
 IDIUse=1 WtCom= 1.00D+00 WtEn= 0.00D+00
 Coeff-Com:  0.361D+00-0.972D+00 0.296D+00 0.163D+01 0.258D+00-0.467D+01
 Coeff-Com:  0.344D+01-0.375D+01 0.268D+01 0.648D+00 0.124D+01-0.168D+00
 Coeff:      0.361D+00-0.972D+00 0.296D+00 0.163D+01 0.258D+00-0.467D+01
 Coeff:      0.344D+01-0.375D+01 0.268D+01 0.648D+00 0.124D+01-0.168D+00
 Gap=     0.205 Goal=   None    Shift=    0.000
 Gap=     0.129 Goal=   None    Shift=    0.000
 RMSDP=2.33D-05 MaxDP=3.50D-03 DE= 3.79D-04 OVMax= 6.60D-03

 Cycle  32  Pass 1  IDiag  1:
 RMSU=  1.52D-06    CP:  9.98D-01  3.00D+00  3.00D+00  1.10D+00 -1.81D+00
                    CP: -3.00D+00 -3.00D+00  3.00D+00  3.00D+00  3.00D+00
                    CP:  9.23D-01
 E= -1650.37679260620     Delta-E=       -0.000031666530 Rises=F Damp=F
 DIIS: error= 3.45D-04 at cycle  32 NSaved=  13.
 NSaved=13 IEnMin= 5 EnMin= -1650.37821861449     IErMin= 4 ErrMin= 1.46D-04
 ErrMax= 3.45D-04  0.00D+00 EMaxC= 1.00D+00 BMatC= 2.83D-04 BMatP= 2.00D-05
 IDIUse=1 WtCom= 1.00D+00 WtEn= 0.00D+00
 Coeff-Com:  0.712D+00-0.201D+01 0.651D-01 0.149D+01 0.583D+00-0.401D+01
 Coeff-Com:  0.292D+01-0.423D+01 0.246D+01 0.115D+01 0.190D+01-0.747D+01
 Coeff-Com:  0.744D+01
 Coeff:      0.712D+00-0.201D+01 0.651D-01 0.149D+01 0.583D+00-0.401D+01
 Coeff:      0.292D+01-0.423D+01 0.246D+01 0.115D+01 0.190D+01-0.747D+01
 Coeff:      0.744D+01
 Gap=     0.206 Goal=   None    Shift=    0.000
 Gap=     0.132 Goal=   None    Shift=    0.000
 RMSDP=9.70D-05 MaxDP=1.46D-02 DE=-3.17D-05 OVMax= 3.18D-02

 Cycle  33  Pass 1  IDiag  1:
 RMSU=  9.47D-06    CP:  9.98D-01  3.00D+00  3.00D+00  1.22D+00 -2.70D+00
                    CP: -3.00D+00 -3.00D+00  3.00D+00  3.00D+00  3.00D+00
                    CP:  1.32D+00 -3.00D+00
 E= -1650.37664417094     Delta-E=        0.000148435267 Rises=F Damp=F
 DIIS: error= 4.57D-04 at cycle  33 NSaved=  14.
 NSaved=14 IEnMin= 5 EnMin= -1650.37821861449     IErMin= 4 ErrMin= 1.46D-04
 ErrMax= 4.57D-04  0.00D+00 EMaxC= 1.00D+00 BMatC= 5.10D-04 BMatP= 2.00D-05
 IDIUse=1 WtCom= 1.00D+00 WtEn= 0.00D+00
 Large coefficients: NSaved= 14 BigCof=   11.10 CofMax=   10.00 Det=-1.03D-08
 Inversion failed.  Reducing to 13 matrices.
 Coeff-Com:  0.400D+00-0.906D+00 0.290D+00 0.165D+01 0.239D+00-0.481D+01
 Coeff-Com:  0.355D+01-0.373D+01 0.267D+01 0.571D+00 0.120D+01-0.161D+00
 Coeff-Com:  0.342D-01
 Coeff:      0.400D+00-0.906D+00 0.290D+00 0.165D+01 0.239D+00-0.481D+01
 Coeff:      0.355D+01-0.373D+01 0.267D+01 0.571D+00 0.120D+01-0.161D+00
 Coeff:      0.342D-01
 Gap=     0.205 Goal=   None    Shift=    0.000
 Gap=     0.129 Goal=   None    Shift=    0.000
 RMSDP=9.02D-05 MaxDP=1.36D-02 DE= 1.48D-04 OVMax= 2.63D-02

 Cycle  34  Pass 1  IDiag  1:
 RMSU=  4.17D-07    CP:  9.98D-01  3.00D+00  3.00D+00  1.11D+00 -1.86D+00
                    CP: -3.00D+00 -3.00D+00  3.00D+00  3.00D+00  3.00D+00
                    CP:  9.18D-01  6.46D-01 -1.46D-02
 E= -1650.37678177306     Delta-E=       -0.000137602128 Rises=F Damp=F
 DIIS: error= 3.51D-04 at cycle  34 NSaved=  14.
 NSaved=14 IEnMin= 5 EnMin= -1650.37821861449     IErMin= 4 ErrMin= 1.46D-04
 ErrMax= 3.51D-04  0.00D+00 EMaxC= 1.00D+00 BMatC= 2.93D-04 BMatP= 2.00D-05
 IDIUse=1 WtCom= 1.00D+00 WtEn= 0.00D+00
 Large coefficients: NSaved= 14 BigCof=   26.22 CofMax=   10.00 Det=-2.26D-09
 Inversion failed.  Reducing to 13 matrices.
 Coeff-Com:  0.426D+00-0.105D+01 0.314D+00 0.170D+01 0.211D+00-0.479D+01
 Coeff-Com:  0.353D+01-0.381D+01 0.277D+01 0.688D+00 0.129D+01 0.146D+00
 Coeff-Com: -0.433D+00
 Coeff:      0.426D+00-0.105D+01 0.314D+00 0.170D+01 0.211D+00-0.479D+01
 Coeff:      0.353D+01-0.381D+01 0.277D+01 0.688D+00 0.129D+01 0.146D+00
 Coeff:     -0.433D+00
 Gap=     0.205 Goal=   None    Shift=    0.000
 Gap=     0.129 Goal=   None    Shift=    0.000
 RMSDP=1.29D-05 MaxDP=1.95D-03 DE=-1.38D-04 OVMax= 4.14D-03

 Cycle  35  Pass 1  IDiag  1:
 RMSU=  5.31D-07    CP:  9.98D-01  3.00D+00  3.00D+00  1.10D+00 -1.73D+00
                    CP: -3.00D+00 -3.00D+00  3.00D+00  3.00D+00  3.00D+00
                    CP:  7.93D-01  8.79D-01 -3.33D-03  3.00D+00
 E= -1650.37679286672     Delta-E=       -0.000011093659 Rises=F Damp=F
 DIIS: error= 3.57D-04 at cycle  35 NSaved=  14.
 NSaved=14 IEnMin= 5 EnMin= -1650.37821861449     IErMin= 4 ErrMin= 1.46D-04
 ErrMax= 3.57D-04  0.00D+00 EMaxC= 1.00D+00 BMatC= 3.03D-04 BMatP= 2.00D-05
 IDIUse=1 WtCom= 1.00D+00 WtEn= 0.00D+00
 Coeff-Com:  0.828D+00-0.222D+01 0.548D+00 0.215D+01 0.696D-01-0.505D+01
 Coeff-Com:  0.368D+01-0.465D+01 0.347D+01 0.142D+01 0.196D+01 0.894D+00
 Coeff-Com: -0.646D+01 0.434D+01
 Coeff:      0.828D+00-0.222D+01 0.548D+00 0.215D+01 0.696D-01-0.505D+01
 Coeff:      0.368D+01-0.465D+01 0.347D+01 0.142D+01 0.196D+01 0.894D+00
 Coeff:     -0.646D+01 0.434D+01
 Gap=     0.204 Goal=   None    Shift=    0.000
 Gap=     0.131 Goal=   None    Shift=    0.000
 RMSDP=7.74D-05 MaxDP=1.14D-02 DE=-1.11D-05 OVMax= 2.36D-02

 Cycle  36  Pass 1  IDiag  1:
 RMSU=  3.87D-06    CP:  9.98D-01  3.00D+00  3.00D+00  1.02D+00 -9.15D-01
                    CP: -3.00D+00 -3.00D+00  3.00D+00  2.09D+00  1.32D+00
                    CP:  1.23D-01 -1.04D+00  5.33D-01  3.00D+00  3.00D+00
 E= -1650.37683628861     Delta-E=       -0.000043421888 Rises=F Damp=F
 DIIS: error= 4.26D-04 at cycle  36 NSaved=  15.
 NSaved=15 IEnMin= 5 EnMin= -1650.37821861449     IErMin= 4 ErrMin= 1.46D-04
 ErrMax= 4.26D-04  0.00D+00 EMaxC= 1.00D+00 BMatC= 4.52D-04 BMatP= 2.00D-05
 IDIUse=1 WtCom= 1.00D+00 WtEn= 0.00D+00
 Coeff-Com: -0.178D+01 0.218D+01 0.590D+00 0.136D+01-0.860D+00-0.532D+01
 Coeff-Com:  0.415D+01-0.154D+01 0.192D+01 0.600D+00 0.467D+00 0.130D+01
 Coeff-Com: -0.542D+01 0.670D+01-0.335D+01
 Coeff:     -0.178D+01 0.218D+01 0.590D+00 0.136D+01-0.860D+00-0.532D+01
 Coeff:      0.415D+01-0.154D+01 0.192D+01 0.600D+00 0.467D+00 0.130D+01
 Coeff:     -0.542D+01 0.670D+01-0.335D+01
 Gap=     0.205 Goal=   None    Shift=    0.000
 Gap=     0.131 Goal=   None    Shift=    0.000
 RMSDP=1.49D-04 MaxDP=2.22D-02 DE=-4.34D-05 OVMax= 4.11D-02

 Cycle  37  Pass 1  IDiag  1:
 RMSU=  9.89D-06    CP:  9.98D-01  3.00D+00  3.00D+00  1.21D+00 -2.22D+00
                    CP: -3.00D+00 -3.00D+00  3.00D+00  3.00D+00  2.83D+00
                    CP:  3.10D-01 -3.00D+00  3.74D-02  3.00D+00  1.05D+00
                    CP: -5.14D-01
 E= -1650.37660189541     Delta-E=        0.000234393203 Rises=F Damp=F
 DIIS: error= 5.56D-04 at cycle  37 NSaved=  16.
 NSaved=16 IEnMin= 5 EnMin= -1650.37821861449     IErMin= 4 ErrMin= 1.46D-04
 ErrMax= 5.56D-04  0.00D+00 EMaxC= 1.00D+00 BMatC= 7.99D-04 BMatP= 2.00D-05
 IDIUse=1 WtCom= 1.00D+00 WtEn= 0.00D+00
 Large coefficients: NSaved= 16 BigCof=   19.90 CofMax=   10.00 Det=-1.36D-09
 Inversion failed.  Reducing to 15 matrices.
 Coeff-Com: -0.468D+01 0.658D+01-0.806D+00-0.815D+00-0.883D-01-0.414D+01
 Coeff-Com:  0.366D+01 0.337D+00 0.102D+01-0.650D+00-0.458D+00 0.802D+01
 Coeff-Com: -0.277D+01-0.349D+01-0.733D+00
 Coeff:     -0.468D+01 0.658D+01-0.806D+00-0.815D+00-0.883D-01-0.414D+01
 Coeff:      0.366D+01 0.337D+00 0.102D+01-0.650D+00-0.458D+00 0.802D+01
 Coeff:     -0.277D+01-0.349D+01-0.733D+00
 Gap=     0.207 Goal=   None    Shift=    0.000
 Gap=     0.132 Goal=   None    Shift=    0.000
 RMSDP=3.11D-04 MaxDP=4.74D-02 DE= 2.34D-04 OVMax= 9.18D-02

 Cycle  38  Pass 1  IDiag  1:
 RMSU=  1.50D-04    CP:  9.97D-01  3.00D+00  3.00D+00  1.54D+00 -3.00D+00
                    CP: -3.00D+00 -3.00D+00  3.00D+00  3.00D+00  3.00D+00
                    CP:  2.13D+00 -3.00D+00  1.75D+00  3.00D+00  3.00D+00
                    CP: -1.15D+00  3.00D+00
 E= -1650.37620851653     Delta-E=        0.000393378873 Rises=F Damp=F
 DIIS: error= 7.24D-04 at cycle  38 NSaved=  16.
 NSaved=16 IEnMin= 5 EnMin= -1650.37821861449     IErMin= 4 ErrMin= 1.46D-04
 ErrMax= 7.24D-04  0.00D+00 EMaxC= 1.00D+00 BMatC= 1.34D-03 BMatP= 2.00D-05
 IDIUse=1 WtCom= 1.00D+00 WtEn= 0.00D+00
 Coeff-Com: -0.479D+01 0.701D+01-0.985D+00-0.103D+01 0.986D-01-0.405D+01
 Coeff-Com:  0.361D+01 0.408D+00 0.782D+00-0.101D+01-0.635D+00 0.908D+01
 Coeff-Com: -0.305D+01-0.381D+01-0.430D+00-0.200D+00
 Coeff:     -0.479D+01 0.701D+01-0.985D+00-0.103D+01 0.986D-01-0.405D+01
 Coeff:      0.361D+01 0.408D+00 0.782D+00-0.101D+01-0.635D+00 0.908D+01
 Coeff:     -0.305D+01-0.381D+01-0.430D+00-0.200D+00
 Gap=     0.207 Goal=   None    Shift=    0.000
 Gap=     0.136 Goal=   None    Shift=    0.000
 RMSDP=7.57D-05 MaxDP=1.13D-02 DE= 3.93D-04 OVMax= 2.22D-02

 Cycle  39  Pass 1  IDiag  1:
 RMSU=  9.31D-06    CP:  9.96D-01  3.00D+00  3.00D+00  1.61D+00 -3.00D+00
                    CP: -3.00D+00 -3.00D+00  3.00D+00  3.00D+00  3.00D+00
                    CP:  2.56D+00 -3.00D+00  2.54D+00  3.00D+00  3.00D+00
                    CP: -3.17D-01  3.00D+00  1.36D+00
 E= -1650.37609631891     Delta-E=        0.000112197624 Rises=F Damp=F
 DIIS: error= 7.99D-04 at cycle  39 NSaved=  17.
 NSaved=17 IEnMin= 5 EnMin= -1650.37821861449     IErMin= 4 ErrMin= 1.46D-04
 ErrMax= 7.99D-04  0.00D+00 EMaxC= 1.00D+00 BMatC= 1.64D-03 BMatP= 2.00D-05
 IDIUse=1 WtCom= 1.00D+00 WtEn= 0.00D+00
 Large coefficients: NSaved= 17 BigCof=   11.85 CofMax=   10.00 Det=-1.11D-08
 Inversion failed.  Reducing to 16 matrices.
 Large coefficients: NSaved= 16 BigCof=   10.31 CofMax=   10.00 Det=-1.14D-08
 Inversion failed.  Reducing to 15 matrices.
 Coeff-Com: -0.217D+01 0.236D+01-0.404D+00 0.366D+00 0.393D+00-0.431D+01
 Coeff-Com:  0.347D+01-0.276D+01 0.249D+01 0.512D+00 0.103D+01 0.135D+01
 Coeff-Com: -0.990D+00-0.111D+01 0.765D+00
 Coeff:     -0.217D+01 0.236D+01-0.404D+00 0.366D+00 0.393D+00-0.431D+01
 Coeff:      0.347D+01-0.276D+01 0.249D+01 0.512D+00 0.103D+01 0.135D+01
 Coeff:     -0.990D+00-0.111D+01 0.765D+00
 Gap=     0.206 Goal=   None    Shift=    0.000
 Gap=     0.130 Goal=   None    Shift=    0.000
 RMSDP=3.38D-04 MaxDP=5.12D-02 DE= 1.12D-04 OVMax= 9.61D-02

 Cycle  40  Pass 1  IDiag  1:
 RMSU=  2.08D-06    CP:  9.98D-01  3.00D+00  3.00D+00  1.26D+00 -2.74D+00
                    CP: -3.00D+00 -3.00D+00  3.00D+00  3.00D+00  3.00D+00
                    CP:  8.82D-01 -3.00D+00  5.83D-01  3.00D+00  3.00D+00
                    CP:  4.10D-01  6.26D-01  8.72D-04 -9.53D-03
 E= -1650.37658159183     Delta-E=       -0.000485272916 Rises=F Damp=F
 DIIS: error= 5.06D-04 at cycle  40 NSaved=  16.
 NSaved=16 IEnMin= 5 EnMin= -1650.37821861449     IErMin= 4 ErrMin= 1.46D-04
 ErrMax= 5.06D-04  0.00D+00 EMaxC= 1.00D+00 BMatC= 6.58D-04 BMatP= 2.00D-05
 IDIUse=1 WtCom= 1.00D+00 WtEn= 0.00D+00
 Large coefficients: NSaved= 16 BigCof=   12.59 CofMax=   10.00 Det=-1.44D-08
 Inversion failed.  Reducing to 15 matrices.
 Large coefficients: NSaved= 15 BigCof=   12.86 CofMax=   10.00 Det=-1.54D-08
 Inversion failed.  Reducing to 14 matrices.
 Coeff-Com:  0.266D+00-0.136D+01-0.156D+00 0.124D+01 0.897D+00-0.402D+01
 Coeff-Com:  0.296D+01-0.452D+01 0.306D+01 0.731D+00 0.171D+01 0.293D+00
 Coeff-Com: -0.191D+00 0.864D-01
 Coeff:      0.266D+00-0.136D+01-0.156D+00 0.124D+01 0.897D+00-0.402D+01
 Coeff:      0.296D+01-0.452D+01 0.306D+01 0.731D+00 0.171D+01 0.293D+00
 Coeff:     -0.191D+00 0.864D-01
 Gap=     0.206 Goal=   None    Shift=    0.000
 Gap=     0.130 Goal=   None    Shift=    0.000
 RMSDP=3.60D-05 MaxDP=4.17D-03 DE=-4.85D-04 OVMax= 1.11D-02

 Cycle  41  Pass 1  IDiag  1:
 Restarting incremental Fock formation.
 E= -1650.37664623556     Delta-E=       -0.000064643733 Rises=F Damp=F
 DIIS: error= 3.86D-04 at cycle  41 NSaved=  15.
 NSaved=15 IEnMin= 5 EnMin= -1650.37821861449     IErMin= 4 ErrMin= 1.46D-04
 ErrMax= 3.86D-04  0.00D+00 EMaxC= 1.00D+00 BMatC= 3.64D-04 BMatP= 2.00D-05
 IDIUse=1 WtCom= 1.00D+00 WtEn= 0.00D+00
 Coeff-Com: -0.222D+01 0.167D+01-0.328D+00 0.288D+00 0.911D-01-0.357D+01
 Coeff-Com:  0.296D+01-0.214D+01 0.259D+01 0.109D+01 0.135D+01-0.229D+01
 Coeff-Com: -0.268D+00 0.756D-01 0.171D+01
 Coeff:     -0.222D+01 0.167D+01-0.328D+00 0.288D+00 0.911D-01-0.357D+01
 Coeff:      0.296D+01-0.214D+01 0.259D+01 0.109D+01 0.135D+01-0.229D+01
 Coeff:     -0.268D+00 0.756D-01 0.171D+01
 Gap=     0.206 Goal=   None    Shift=    0.000
 Gap=     0.134 Goal=   None    Shift=    0.000
 RMSDP=1.50D-04 MaxDP=2.15D-02 DE=-6.46D-05 OVMax= 4.99D-02

 Cycle  42  Pass 1  IDiag  1:
 RMSU=  1.50D-04    CP:  1.00D+00
 E= -1650.37634312315     Delta-E=        0.000303112415 Rises=F Damp=F
 DIIS: error= 6.65D-04 at cycle  42 NSaved=  16.
 NSaved=16 IEnMin= 5 EnMin= -1650.37821861449     IErMin= 4 ErrMin= 1.46D-04
 ErrMax= 6.65D-04  0.00D+00 EMaxC= 1.00D+00 BMatC= 1.10D-03 BMatP= 2.00D-05
 IDIUse=1 WtCom= 1.00D+00 WtEn= 0.00D+00
 Coeff-Com: -0.191D+01 0.103D+01 0.272D-01 0.741D+00-0.264D+00-0.386D+01
 Coeff-Com:  0.313D+01-0.202D+01 0.256D+01 0.128D+01 0.135D+01-0.315D+01
 Coeff-Com: -0.591D+00 0.969D-01 0.192D+01 0.656D+00
 Coeff:     -0.191D+01 0.103D+01 0.272D-01 0.741D+00-0.264D+00-0.386D+01
 Coeff:      0.313D+01-0.202D+01 0.256D+01 0.128D+01 0.135D+01-0.315D+01
 Coeff:     -0.591D+00 0.969D-01 0.192D+01 0.656D+00
 Gap=     0.206 Goal=   None    Shift=    0.000
 Gap=     0.135 Goal=   None    Shift=    0.000
 RMSDP=4.35D-05 MaxDP=6.39D-03 DE= 3.03D-04 OVMax= 1.41D-02

 Cycle  43  Pass 1  IDiag  1:
 RMSU=  4.64D-06    CP:  1.00D+00  1.29D+00
 E= -1650.37624100794     Delta-E=        0.000102115205 Rises=F Damp=F
 DIIS: error= 7.50D-04 at cycle  43 NSaved=  17.
 NSaved=17 IEnMin= 5 EnMin= -1650.37821861449     IErMin= 4 ErrMin= 1.46D-04
 ErrMax= 7.50D-04  0.00D+00 EMaxC= 1.00D+00 BMatC= 1.42D-03 BMatP= 2.00D-05
 IDIUse=1 WtCom= 1.00D+00 WtEn= 0.00D+00
 Coeff-Com: -0.312D+01 0.290D+01-0.381D+00 0.192D-01 0.214D-01-0.345D+01
 Coeff-Com:  0.288D+01-0.177D+01 0.223D+01 0.958D+00 0.120D+01-0.166D+01
 Coeff-Com:  0.446D+00-0.583D-01 0.150D+01 0.122D+01-0.193D+01
 Coeff:     -0.312D+01 0.290D+01-0.381D+00 0.192D-01 0.214D-01-0.345D+01
 Coeff:      0.288D+01-0.177D+01 0.223D+01 0.958D+00 0.120D+01-0.166D+01
 Coeff:      0.446D+00-0.583D-01 0.150D+01 0.122D+01-0.193D+01
 Gap=     0.206 Goal=   None    Shift=    0.000
 Gap=     0.134 Goal=   None    Shift=    0.000
 RMSDP=1.05D-05 MaxDP=1.36D-03 DE= 1.02D-04 OVMax= 3.12D-03

 Cycle  44  Pass 1  IDiag  1:
 RMSU=  8.86D-06    CP:  1.00D+00  1.27D+00  2.11D+00
 E= -1650.37626635415     Delta-E=       -0.000025346211 Rises=F Damp=F
 DIIS: error= 7.17D-04 at cycle  44 NSaved=  18.
 NSaved=18 IEnMin= 5 EnMin= -1650.37821861449     IErMin= 4 ErrMin= 1.46D-04
 ErrMax= 7.17D-04  0.00D+00 EMaxC= 1.00D+00 BMatC= 1.30D-03 BMatP= 2.00D-05
 IDIUse=1 WtCom= 1.00D+00 WtEn= 0.00D+00
 Coeff-Com: -0.363D+01 0.311D+01 0.583D-01 0.126D+00-0.308D+00-0.299D+01
 Coeff-Com:  0.239D+01-0.120D+01 0.157D+01 0.716D+00 0.106D+01-0.121D+01
 Coeff-Com:  0.106D+01-0.194D+00 0.166D+01 0.264D+01-0.627D+01 0.239D+01
 Coeff:     -0.363D+01 0.311D+01 0.583D-01 0.126D+00-0.308D+00-0.299D+01
 Coeff:      0.239D+01-0.120D+01 0.157D+01 0.716D+00 0.106D+01-0.121D+01
 Coeff:      0.106D+01-0.194D+00 0.166D+01 0.264D+01-0.627D+01 0.239D+01
 Gap=     0.207 Goal=   None    Shift=    0.000
 Gap=     0.137 Goal=   None    Shift=    0.000
 RMSDP=1.56D-04 MaxDP=2.31D-02 DE=-2.53D-05 OVMax= 4.21D-02

 Cycle  45  Pass 1  IDiag  1:
 RMSU=  5.30D-05    CP:  1.00D+00  2.22D+00  3.00D+00  3.00D+00
 E= -1650.37601511152     Delta-E=        0.000251242629 Rises=F Damp=F
 DIIS: error= 8.91D-04 at cycle  45 NSaved=  19.
 NSaved=19 IEnMin= 5 EnMin= -1650.37821861449     IErMin= 4 ErrMin= 1.46D-04
 ErrMax= 8.91D-04  0.00D+00 EMaxC= 1.00D+00 BMatC= 2.00D-03 BMatP= 2.00D-05
 IDIUse=1 WtCom= 1.00D+00 WtEn= 0.00D+00
 Coeff-Com: -0.363D+01 0.318D+01-0.285D-01 0.946D-01-0.254D+00-0.280D+01
 Coeff-Com:  0.226D+01-0.121D+01 0.141D+01 0.724D+00 0.101D+01-0.976D+00
 Coeff-Com:  0.199D+01-0.540D+00 0.140D+01 0.366D+01-0.718D+01 0.278D+01
 Coeff-Com: -0.898D+00
 Coeff:     -0.363D+01 0.318D+01-0.285D-01 0.946D-01-0.254D+00-0.280D+01
 Coeff:      0.226D+01-0.121D+01 0.141D+01 0.724D+00 0.101D+01-0.976D+00
 Coeff:      0.199D+01-0.540D+00 0.140D+01 0.366D+01-0.718D+01 0.278D+01
 Coeff:     -0.898D+00
 Gap=     0.207 Goal=   None    Shift=    0.000
 Gap=     0.137 Goal=   None    Shift=    0.000
 RMSDP=5.35D-05 MaxDP=7.89D-03 DE= 2.51D-04 OVMax= 1.50D-02

 Cycle  46  Pass 1  IDiag  1:
 RMSU=  6.04D-06    CP:  1.00D+00  2.54D+00  3.00D+00  3.00D+00  1.41D+00
 E= -1650.37596139228     Delta-E=        0.000053719243 Rises=F Damp=F
 DIIS: error= 9.11D-04 at cycle  46 NSaved=  20.
 NSaved=20 IEnMin= 5 EnMin= -1650.37821861449     IErMin= 4 ErrMin= 1.46D-04
 ErrMax= 9.11D-04  0.00D+00 EMaxC= 1.00D+00 BMatC= 2.07D-03 BMatP= 2.00D-05
 IDIUse=1 WtCom= 1.00D+00 WtEn= 0.00D+00
 Coeff-Com: -0.371D+01 0.333D+01-0.742D-01 0.625D-01-0.226D+00-0.279D+01
 Coeff-Com:  0.226D+01-0.121D+01 0.137D+01 0.699D+00 0.987D+00-0.843D+00
 Coeff-Com:  0.217D+01-0.586D+00 0.128D+01 0.386D+01-0.740D+01 0.293D+01
 Coeff-Com: -0.131D+01 0.207D+00
 Coeff:     -0.371D+01 0.333D+01-0.742D-01 0.625D-01-0.226D+00-0.279D+01
 Coeff:      0.226D+01-0.121D+01 0.137D+01 0.699D+00 0.987D+00-0.843D+00
 Coeff:      0.217D+01-0.586D+00 0.128D+01 0.386D+01-0.740D+01 0.293D+01
 Coeff:     -0.131D+01 0.207D+00
 Gap=     0.207 Goal=   None    Shift=    0.000
 Gap=     0.137 Goal=   None    Shift=    0.000
 RMSDP=6.82D-06 MaxDP=9.87D-04 DE= 5.37D-05 OVMax= 2.01D-03

 Cycle  47  Pass 1  IDiag  1:
 RMSU=  3.51D-07    CP:  1.00D+00  2.58D+00  3.00D+00  3.00D+00  1.46D+00
                    CP:  1.28D+00
 E= -1650.37596145772     Delta-E=       -0.000000065443 Rises=F Damp=F
 DIIS: error= 9.04D-04 at cycle  47 NSaved=  20.
 NSaved=20 IEnMin= 5 EnMin= -1650.37821861449     IErMin= 4 ErrMin= 1.46D-04
 ErrMax= 9.04D-04  0.00D+00 EMaxC= 1.00D+00 BMatC= 2.04D-03 BMatP= 2.00D-05
 IDIUse=1 WtCom= 1.00D+00 WtEn= 0.00D+00
 Large coefficients: NSaved= 20 BigCof=   11.49 CofMax=   10.00 Det=-1.36D-09
 Inversion failed.  Reducing to 19 matrices.
 Coeff-Com: -0.218D+01 0.888D+00 0.479D+00 0.963D+00-0.613D+00-0.346D+01
 Coeff-Com:  0.270D+01-0.158D+01 0.202D+01 0.116D+01 0.128D+01-0.304D+01
 Coeff-Com: -0.452D-01 0.213D+01 0.230D+01-0.387D+01 0.202D+01 0.359D+00
 Coeff-Com: -0.494D+00
 Coeff:     -0.218D+01 0.888D+00 0.479D+00 0.963D+00-0.613D+00-0.346D+01
 Coeff:      0.270D+01-0.158D+01 0.202D+01 0.116D+01 0.128D+01-0.304D+01
 Coeff:     -0.452D-01 0.213D+01 0.230D+01-0.387D+01 0.202D+01 0.359D+00
 Coeff:     -0.494D+00
 Gap=     0.207 Goal=   None    Shift=    0.000
 Gap=     0.138 Goal=   None    Shift=    0.000
 RMSDP=5.29D-05 MaxDP=7.21D-03 DE=-6.54D-08 OVMax= 1.26D-02

 Cycle  48  Pass 1  IDiag  1:
 RMSU=  9.44D-06    CP:  1.00D+00  2.31D+00  3.00D+00  3.00D+00  8.67D-01
                    CP: -2.27D-01  3.00D+00
 E= -1650.37594546315     Delta-E=        0.000015994576 Rises=F Damp=F
 DIIS: error= 9.57D-04 at cycle  48 NSaved=  20.
 NSaved=20 IEnMin= 5 EnMin= -1650.37821861449     IErMin= 4 ErrMin= 1.46D-04
 ErrMax= 9.57D-04  0.00D+00 EMaxC= 1.00D+00 BMatC= 2.31D-03 BMatP= 2.00D-05
 IDIUse=1 WtCom= 1.00D+00 WtEn= 0.00D+00
 Coeff-Com: -0.163D+01 0.191D+00 0.570D+00 0.121D+01-0.622D+00-0.333D+01
 Coeff-Com:  0.257D+01-0.149D+01 0.180D+01 0.116D+01 0.117D+01-0.334D+01
 Coeff-Com: -0.197D+00 0.205D+01 0.176D+01-0.377D+00 0.516D+00-0.131D+01
 Coeff-Com:  0.280D+01-0.251D+01
 Coeff:     -0.163D+01 0.191D+00 0.570D+00 0.121D+01-0.622D+00-0.333D+01
 Coeff:      0.257D+01-0.149D+01 0.180D+01 0.116D+01 0.117D+01-0.334D+01
 Coeff:     -0.197D+00 0.205D+01 0.176D+01-0.377D+00 0.516D+00-0.131D+01
 Coeff:      0.280D+01-0.251D+01
 Gap=     0.207 Goal=   None    Shift=    0.000
 Gap=     0.137 Goal=   None    Shift=    0.000
 RMSDP=7.17D-05 MaxDP=1.03D-02 DE= 1.60D-05 OVMax= 2.07D-02

 Cycle  49  Pass 1  IDiag  1:
 RMSU=  2.40D-06    CP:  1.00D+00  2.72D+00  3.00D+00  3.00D+00  1.49D+00
                    CP:  2.41D+00  3.00D+00  6.65D-01
 E= -1650.37595315350     Delta-E=       -0.000007690354 Rises=F Damp=F
 DIIS: error= 8.88D-04 at cycle  49 NSaved=  20.
 NSaved=20 IEnMin= 5 EnMin= -1650.37821861449     IErMin= 4 ErrMin= 1.46D-04
 ErrMax= 8.88D-04  0.00D+00 EMaxC= 1.00D+00 BMatC= 1.99D-03 BMatP= 2.00D-05
 IDIUse=1 WtCom= 1.00D+00 WtEn= 0.00D+00
 Coeff-Com: -0.191D+01 0.769D+00 0.370D+00 0.915D+00-0.475D+00-0.310D+01
 Coeff-Com:  0.244D+01-0.129D+01 0.158D+01 0.961D+00 0.102D+01-0.264D+01
 Coeff-Com: -0.596D-01 0.171D+01 0.169D+01-0.930D+00 0.832D+00 0.134D+01
 Coeff-Com: -0.317D+01 0.952D+00
 Coeff:     -0.191D+01 0.769D+00 0.370D+00 0.915D+00-0.475D+00-0.310D+01
 Coeff:      0.244D+01-0.129D+01 0.158D+01 0.961D+00 0.102D+01-0.264D+01
 Coeff:     -0.596D-01 0.171D+01 0.169D+01-0.930D+00 0.832D+00 0.134D+01
 Coeff:     -0.317D+01 0.952D+00
 Gap=     0.207 Goal=   None    Shift=    0.000
 Gap=     0.136 Goal=   None    Shift=    0.000
 RMSDP=8.18D-06 MaxDP=7.84D-04 DE=-7.69D-06 OVMax= 1.30D-03

 Cycle  50  Pass 1  IDiag  1:
 RMSU=  3.63D-06    CP:  1.00D+00  2.72D+00  3.00D+00  3.00D+00  1.54D+00
                    CP:  3.00D+00  3.00D+00  3.90D-01  1.64D+00
 E= -1650.37601468230     Delta-E=       -0.000061528798 Rises=F Damp=F
 DIIS: error= 8.09D-04 at cycle  50 NSaved=  20.
 NSaved=20 IEnMin= 5 EnMin= -1650.37821861449     IErMin= 4 ErrMin= 1.46D-04
 ErrMax= 8.09D-04  0.00D+00 EMaxC= 1.00D+00 BMatC= 1.64D-03 BMatP= 2.00D-05
 IDIUse=1 WtCom= 1.00D+00 WtEn= 0.00D+00
 Coeff-Com: -0.102D+01-0.800D+00 0.961D+00 0.129D+01-0.808D+00-0.196D+01
 Coeff-Com:  0.141D+01 0.434D-01 0.503D+00 0.885D+00 0.630D+00-0.370D+01
 Coeff-Com: -0.153D+00 0.240D+01 0.277D+01-0.433D+01 0.264D+01-0.138D+01
 Coeff-Com: -0.472D+01 0.633D+01
 Coeff:     -0.102D+01-0.800D+00 0.961D+00 0.129D+01-0.808D+00-0.196D+01
 Coeff:      0.141D+01 0.434D-01 0.503D+00 0.885D+00 0.630D+00-0.370D+01
 Coeff:     -0.153D+00 0.240D+01 0.277D+01-0.433D+01 0.264D+01-0.138D+01
 Coeff:     -0.472D+01 0.633D+01
 Gap=     0.208 Goal=   None    Shift=    0.000
 Gap=     0.136 Goal=   None    Shift=    0.000
 RMSDP=2.33D-04 MaxDP=3.19D-02 DE=-6.15D-05 OVMax= 7.17D-02

 Cycle  51  Pass 1  IDiag  1:
 RMSU=  1.60D-04    CP:  1.00D+00  3.00D+00  3.00D+00  3.00D+00  3.00D+00
                    CP:  3.00D+00  3.00D+00  3.00D-01 -1.28D+00  3.00D+00
 E= -1650.37590193754     Delta-E=        0.000112744764 Rises=F Damp=F
 DIIS: error= 8.02D-04 at cycle  51 NSaved=  20.
 NSaved=20 IEnMin= 5 EnMin= -1650.37821861449     IErMin= 4 ErrMin= 1.46D-04
 ErrMax= 8.02D-04  0.00D+00 EMaxC= 1.00D+00 BMatC= 1.65D-03 BMatP= 2.00D-05
 IDIUse=1 WtCom= 1.00D+00 WtEn= 0.00D+00
 Coeff-Com: -0.247D+01 0.118D+01 0.491D+00 0.523D+00-0.463D+00-0.226D+01
 Coeff-Com:  0.176D+01-0.406D+00 0.967D+00 0.762D+00 0.871D+00-0.233D+01
 Coeff-Com:  0.265D+00 0.198D+01 0.289D+01-0.767D+01 0.402D+01-0.170D+01
 Coeff-Com:  0.287D+01-0.273D+00
 Coeff:     -0.247D+01 0.118D+01 0.491D+00 0.523D+00-0.463D+00-0.226D+01
 Coeff:      0.176D+01-0.406D+00 0.967D+00 0.762D+00 0.871D+00-0.233D+01
 Coeff:      0.265D+00 0.198D+01 0.289D+01-0.767D+01 0.402D+01-0.170D+01
 Coeff:      0.287D+01-0.273D+00
 Gap=     0.208 Goal=   None    Shift=    0.000
 Gap=     0.136 Goal=   None    Shift=    0.000
 RMSDP=1.68D-04 MaxDP=2.30D-02 DE= 1.13D-04 OVMax= 5.00D-02

 Cycle  52  Pass 1  IDiag  1:
 RMSU=  4.15D-06    CP:  1.00D+00  3.00D+00  3.00D+00  3.00D+00  2.31D+00
                    CP:  3.00D+00 -2.68D+00 -3.51D-01  1.41D+00  2.70D+00
                    CP:  5.46D-02
 E= -1650.37598558961     Delta-E=       -0.000083652077 Rises=F Damp=F
 DIIS: error= 8.08D-04 at cycle  52 NSaved=  20.
 NSaved=20 IEnMin= 5 EnMin= -1650.37821861449     IErMin= 4 ErrMin= 1.46D-04
 ErrMax= 8.08D-04  0.00D+00 EMaxC= 1.00D+00 BMatC= 1.63D-03 BMatP= 2.00D-05
 IDIUse=1 WtCom= 1.00D+00 WtEn= 0.00D+00
 Coeff-Com: -0.260D+01 0.122D+01 0.543D+00 0.748D+00-0.539D+00-0.308D+01
 Coeff-Com:  0.237D+01-0.124D+01 0.173D+01 0.105D+01 0.126D+01-0.285D+01
[...]
    18  H   -0.000004  -0.000001  -0.000001  -0.000000  -0.000005  -0.000000
    19  C    0.000430  -0.000002  -0.000198  -0.000002  -0.001715   0.000008
    20  H   -0.000002  -0.000000  -0.000003  -0.000000   0.000010  -0.000006
    21  Fe   0.003993   0.000962   0.001223   0.001083   0.002824   0.001036
               7          8          9         10         11         12
     1  C   -0.015609  -0.000012   0.010223  -0.000038  -0.000037   0.000034
     2  H   -0.000068  -0.000075  -0.000039  -0.000002   0.000030  -0.000030
     3  C    0.002662  -0.000016  -0.000268  -0.000015   0.000787  -0.000009
     4  H   -0.000029  -0.000002  -0.000000  -0.000002  -0.000008  -0.000001
     5  C    0.008474  -0.000031  -0.010997  -0.000005  -0.000634  -0.000001
     6  H   -0.000036  -0.000002  -0.000107  -0.000079  -0.000001  -0.000000
     7  C    0.005400  -0.000072  -0.024728   0.000038   0.000626  -0.000009
     8  H   -0.000072   0.000287   0.000008  -0.000071   0.000000  -0.000007
     9  C   -0.024728   0.000008   0.002870  -0.000086   0.000014  -0.000002
    10  H    0.000038  -0.000071  -0.000086   0.000252  -0.000003  -0.000000
    11  C    0.000626   0.000000   0.000014  -0.000003  -0.035171   0.000375
    12  H   -0.000009  -0.000007  -0.000002  -0.000000   0.000375   0.000026
    13  C   -0.001128  -0.000001   0.000269  -0.000002   0.001646  -0.000188
    14  H   -0.000001  -0.000000  -0.000002  -0.000000  -0.000121  -0.000088
    15  C    0.000883  -0.000002  -0.001902   0.000000   0.001231  -0.000024
    16  H   -0.000002  -0.000000  -0.000002  -0.000001  -0.000013  -0.000002
    17  C    0.003265   0.000014  -0.002034   0.000011   0.001697  -0.000195
    18  H   -0.000000  -0.000018   0.000011  -0.000006  -0.000135  -0.000087
    19  C   -0.002081  -0.000002   0.004875  -0.000005   0.001096  -0.000005
    20  H    0.000000  -0.000001  -0.000002  -0.000014  -0.000018  -0.000002
    21  Fe   0.008839   0.000819   0.008494   0.000840   0.001123   0.001091
              13         14         15         16         17         18
     1  C    0.002478  -0.000011  -0.001245  -0.000001  -0.000467  -0.000004
     2  H   -0.000009  -0.000007  -0.000001  -0.000000  -0.000004  -0.000001
     3  C   -0.000401   0.000033   0.001107  -0.000001  -0.000524  -0.000001
     4  H    0.000037  -0.000031  -0.000011  -0.000007  -0.000001  -0.000000
     5  C   -0.000149  -0.000005   0.002697   0.000017   0.000658  -0.000005
     6  H   -0.000005  -0.000001   0.000005  -0.000020  -0.000005  -0.000000
     7  C   -0.001128  -0.000001   0.000883  -0.000002   0.003265  -0.000000
     8  H   -0.000001  -0.000000  -0.000002  -0.000000   0.000014  -0.000018
     9  C    0.000269  -0.000002  -0.001902  -0.000002  -0.002034   0.000011
    10  H   -0.000002  -0.000000   0.000000  -0.000001   0.000011  -0.000006
    11  C    0.001646  -0.000121   0.001231  -0.000013   0.001697  -0.000135
    12  H   -0.000188  -0.000088  -0.000024  -0.000002  -0.000195  -0.000087
    13  C   -0.024597   0.000187  -0.012658  -0.000027  -0.003507  -0.000003
    14  H    0.000187   0.000210  -0.000084  -0.000077  -0.000000  -0.000003
    15  C   -0.012658  -0.000084   0.001973  -0.000044   0.009587  -0.000040
    16  H   -0.000027  -0.000077  -0.000044   0.000297  -0.000032  -0.000002
    17  C   -0.003507  -0.000000   0.009587  -0.000032  -0.020447   0.000181
    18  H   -0.000003  -0.000003  -0.000040  -0.000002   0.000181   0.000180
    19  C    0.009349  -0.000040  -0.024830  -0.000003  -0.014210  -0.000074
    20  H   -0.000035  -0.000002   0.000041  -0.000070   0.000011  -0.000077
    21  Fe   0.003310   0.000990   0.008089   0.000836   0.003630   0.001003
              19         20         21
     1  C    0.000430  -0.000002   0.003993
     2  H   -0.000002  -0.000000   0.000962
     3  C   -0.000198  -0.000003   0.001223
     4  H   -0.000002  -0.000000   0.001083
     5  C   -0.001715   0.000010   0.002824
     6  H    0.000008  -0.000006   0.001036
     7  C   -0.002081   0.000000   0.008839
     8  H   -0.000002  -0.000001   0.000819
     9  C    0.004875  -0.000002   0.008494
    10  H   -0.000005  -0.000014   0.000840
    11  C    0.001096  -0.000018   0.001123
    12  H   -0.000005  -0.000002   0.001091
    13  C    0.009349  -0.000035   0.003310
    14  H   -0.000040  -0.000002   0.000990
    15  C   -0.024830   0.000041   0.008089
    16  H   -0.000003  -0.000070   0.000836
    17  C   -0.014210   0.000011   0.003630
    18  H   -0.000074  -0.000077   0.001003
    19  C    0.006176  -0.000110   0.009220
    20  H   -0.000110   0.000251   0.000820
    21  Fe   0.009220   0.000820   1.136374
 Mulliken charges and spin densities:
               1          2
     1  C   -0.165609  -0.024192
     2  H    0.175465   0.000950
     3  C   -0.178921  -0.027663
     4  H    0.173837   0.000880
     5  C   -0.170531  -0.023835
     6  H    0.174778   0.000918
     7  C   -0.143887  -0.013577
     8  H    0.177706   0.000815
     9  C   -0.147222  -0.013407
    10  H    0.177262   0.000811
    11  C   -0.179066  -0.027515
    12  H    0.173794   0.000877
    13  C   -0.169222  -0.025436
    14  H    0.175055   0.000946
    15  C   -0.146543  -0.015229
    16  H    0.177469   0.000844
    17  C   -0.167094  -0.022373
    18  H    0.175255   0.000918
    19  C   -0.144331  -0.012121
    20  H    0.177562   0.000788
    21  Fe   0.854242   1.196600
 Sum of Mulliken charges =   1.00000   1.00000
 Mulliken charges and spin densities with hydrogens summed into heavy atoms:
               1          2
     1  C    0.009855  -0.023243
     3  C   -0.005084  -0.026783
     5  C    0.004247  -0.022917
     7  C    0.033819  -0.012762
     9  C    0.030040  -0.012596
    11  C   -0.005272  -0.026638
    13  C    0.005834  -0.024489
    15  C    0.030926  -0.014385
    17  C    0.008161  -0.021454
    19  C    0.033231  -0.011333
    21  Fe   0.854242   1.196600
 Electronic spatial extent (au):  <R**2>=           1366.0701
 Charge=              1.0000 electrons
 Dipole moment (field-independent basis, Debye):
    X=             -0.0002    Y=             -0.2345    Z=             -0.0036  Tot=              0.2345
 Quadrupole moment (field-independent basis, Debye-Ang):
   XX=            -62.1256   YY=            -56.7424   ZZ=            -56.7689
   XY=             -0.0142   XZ=              0.8406   YZ=             -0.0009
 Traceless Quadrupole moment (field-independent basis, Debye-Ang):
   XX=             -3.5800   YY=              1.8032   ZZ=              1.7767
   XY=             -0.0142   XZ=              0.8406   YZ=             -0.0009
 Octapole moment (field-independent basis, Debye-Ang**2):
  XXX=             -0.0055  YYY=             -0.4698  ZZZ=             -0.0144  XYY=             -0.0014
  XXY=             -2.0947  XXZ=             -0.0273  XZZ=              0.0016  YZZ=             -0.1342
  YYZ=              0.0063  XYZ=              0.0003
 Hexadecapole moment (field-independent basis, Debye-Ang**3):
 XXXX=          -1106.9109 YYYY=           -328.3444 ZZZZ=           -328.4140 XXXY=             -0.1236
 XXXZ=              7.4418 YYYX=             -0.0564 YYYZ=             -0.0533 ZZZX=              2.4504
 ZZZY=              0.0480 XXYY=           -206.9475 XXZZ=           -207.0666 YYZZ=           -109.5956
 XXYZ=             -0.0102 YYXZ=              0.7604 ZZXY=              0.0051
 N-N= 9.035012114959D+02 E-N=-5.691278108765D+03  KE= 1.644991197767D+03
                          Isotropic Fermi Contact Couplings
        Atom                 a.u.       MegaHertz       Gauss      10(-4) cm-1
     1  C(13)             -0.00088      -0.98729      -0.35229      -0.32933
     2  H(1)               0.00033       1.48915       0.53137       0.49673
     3  C(13)             -0.00106      -1.19666      -0.42700      -0.39916
     4  H(1)               0.00025       1.10687       0.39496       0.36921
     5  C(13)             -0.00082      -0.91951      -0.32810      -0.30672
     6  H(1)               0.00031       1.37542       0.49078       0.45879
     7  C(13)             -0.00022      -0.24282      -0.08664      -0.08100
     8  H(1)               0.00033       1.49372       0.53300       0.49825
     9  C(13)             -0.00019      -0.21259      -0.07586      -0.07091
    10  H(1)               0.00033       1.47470       0.52621       0.49191
    11  C(13)             -0.00105      -1.18123      -0.42149      -0.39402
    12  H(1)               0.00025       1.10119       0.39293       0.36732
    13  C(13)             -0.00096      -1.07735      -0.38443      -0.35937
    14  H(1)               0.00032       1.42301       0.50776       0.47466
    15  C(13)             -0.00032      -0.35733      -0.12750      -0.11919
    16  H(1)               0.00034       1.52122       0.54281       0.50743
    17  C(13)             -0.00073      -0.81574      -0.29108      -0.27210
    18  H(1)               0.00032       1.43687       0.51271       0.47929
    19  C(13)             -0.00012      -0.13103      -0.04675      -0.04371
    20  H(1)               0.00033       1.45541       0.51933       0.48547
    21  Fe(57)             0.15594      22.61770       8.07056       7.54445
 --------------------------------------------------------
       Center         ----  Spin Dipole Couplings  ----
                      3XX-RR        3YY-RR        3ZZ-RR
 --------------------------------------------------------
     1   Atom       -0.020300      0.012304      0.007996
     2   Atom        0.000899      0.001249     -0.002148
     3   Atom       -0.025854      0.012621      0.013233
     4   Atom        0.000014      0.000829     -0.000843
     5   Atom       -0.020869      0.008147      0.012722
     6   Atom        0.000444     -0.003480      0.003036
     7   Atom       -0.007296     -0.001785      0.009082
     8   Atom        0.002013     -0.004869      0.002856
     9   Atom       -0.008083      0.009683     -0.001600
    10   Atom        0.001723      0.003742     -0.005464
    11   Atom       -0.025743      0.012773      0.012970
    12   Atom       -0.000019     -0.000966      0.000986
    13   Atom       -0.022060      0.013146      0.008914
    14   Atom        0.000685      0.002800     -0.003485
    15   Atom       -0.009143     -0.000921      0.010064
    16   Atom        0.001894     -0.005348      0.003455
    17   Atom       -0.019031      0.007172      0.011859
    18   Atom        0.000632     -0.002094      0.001462
    19   Atom       -0.006444      0.008883     -0.002439
    20   Atom        0.001892      0.003089     -0.004981
    21   Atom       -2.276418      1.140630      1.135787
 --------------------------------------------------------
                        XY            XZ            YZ
 --------------------------------------------------------
     1   Atom       -0.021190      0.006577     -0.001450
     2   Atom       -0.009276      0.005552     -0.004245
     3   Atom       -0.015388     -0.013326      0.000339
     4   Atom       -0.008357     -0.007051      0.004800
     5   Atom        0.002873     -0.021200     -0.000411
     6   Atom        0.003837     -0.010060     -0.003592
     7   Atom        0.001855      0.022370      0.002519
     8   Atom        0.002452      0.010183      0.002316
     9   Atom        0.022276     -0.003521     -0.000167
    10   Atom        0.010458      0.000479      0.000816
    11   Atom        0.013552     -0.015114     -0.000306
    12   Atom        0.006993     -0.008388     -0.004800
    13   Atom        0.021566      0.003228      0.000204
    14   Atom        0.010155      0.003846      0.003394
    15   Atom        0.003325      0.022395     -0.000179
    16   Atom       -0.000554      0.010507     -0.000867
    17   Atom       -0.006206     -0.020843      0.001650
    18   Atom       -0.005511     -0.009195      0.004483
    19   Atom       -0.022352      0.001622     -0.002221
    20   Atom       -0.010165      0.002359     -0.002303
    21   Atom       -0.001360      0.084785     -0.000338
 --------------------------------------------------------


 ---------------------------------------------------------------------------------
              Anisotropic Spin Dipole Couplings in Principal Axis System
 ---------------------------------------------------------------------------------

       Atom             a.u.   MegaHertz   Gauss  10(-4) cm-1        Axes

              Baa    -0.0314    -4.219    -1.505    -1.407  0.8937  0.4285 -0.1333
     1 C(13)  Bbb     0.0076     1.014     0.362     0.338  0.0008  0.2954  0.9554
              Bcc     0.0239     3.205     1.144     1.069 -0.4487  0.8539 -0.2636
 
              Baa    -0.0085    -4.516    -1.611    -1.506  0.7525  0.6082 -0.2527
     2 H(1)   Bbb    -0.0050    -2.651    -0.946    -0.884 -0.0860  0.4711  0.8779
              Bcc     0.0134     7.167     2.557     2.391  0.6530 -0.6389  0.4067
 
              Baa    -0.0345    -4.634    -1.653    -1.546  0.9199  0.2984  0.2545
     3 C(13)  Bbb     0.0126     1.694     0.605     0.565  0.0163 -0.6776  0.7353
              Bcc     0.0219     2.940     1.049     0.981 -0.3918  0.6722  0.6282
 
              Baa    -0.0088    -4.674    -1.668    -1.559  0.7799  0.4767  0.4056
     4 H(1)   Bbb    -0.0049    -2.603    -0.929    -0.868 -0.0024 -0.6457  0.7636
              Bcc     0.0136     7.277     2.597     2.428  0.6259 -0.5965 -0.5024
 
              Baa    -0.0313    -4.196    -1.497    -1.400  0.8994 -0.0610  0.4329
     5 C(13)  Bbb     0.0081     1.089     0.389     0.363  0.0077  0.9923  0.1240
              Bcc     0.0231     3.106     1.108     1.036 -0.4371 -0.1082  0.8929
 
              Baa    -0.0085    -4.522    -1.613    -1.508  0.7667 -0.1380  0.6270
     6 H(1)   Bbb    -0.0050    -2.679    -0.956    -0.894 -0.0863  0.9456  0.3137
              Bcc     0.0135     7.201     2.569     2.402 -0.6362 -0.2946  0.7130
 
              Baa    -0.0229    -3.077    -1.098    -1.026  0.8198 -0.0037 -0.5726
     7 C(13)  Bbb    -0.0021    -0.288    -0.103    -0.096 -0.0632  0.9933 -0.0969
              Bcc     0.0251     3.365     1.201     1.123  0.5691  0.1156  0.8141
 
              Baa    -0.0078    -4.145    -1.479    -1.383  0.7278 -0.0703 -0.6822
     8 H(1)   Bbb    -0.0055    -2.926    -1.044    -0.976 -0.0749  0.9806 -0.1810
              Bcc     0.0133     7.071     2.523     2.359  0.6817  0.1828  0.7084
 
              Baa    -0.0235    -3.160    -1.127    -1.054  0.8241 -0.5518  0.1280
     9 C(13)  Bbb    -0.0014    -0.189    -0.067    -0.063 -0.0612  0.1379  0.9886
              Bcc     0.0250     3.348     1.195     1.117  0.5631  0.8225 -0.0798
 
              Baa    -0.0078    -4.157    -1.483    -1.386  0.7351 -0.6726  0.0847
    10 H(1)   Bbb    -0.0055    -2.931    -1.046    -0.978 -0.0959  0.0206  0.9952
              Bcc     0.0133     7.088     2.529     2.364  0.6711  0.7397  0.0494
 
              Baa    -0.0344    -4.616    -1.647    -1.540  0.9198 -0.2623  0.2918
    11 C(13)  Bbb     0.0126     1.685     0.601     0.562  0.0030  0.7483  0.6634
              Bcc     0.0218     2.931     1.046     0.978 -0.3923 -0.6093  0.6891
 
              Baa    -0.0088    -4.670    -1.666    -1.558  0.7809 -0.4119  0.4696
    12 H(1)   Bbb    -0.0049    -2.607    -0.930    -0.870  0.0147  0.7638  0.6453
              Bcc     0.0136     7.277     2.597     2.427  0.6245  0.4970 -0.6025
 
              Baa    -0.0325    -4.360    -1.556    -1.454  0.9021 -0.4260 -0.0682
    13 C(13)  Bbb     0.0089     1.199     0.428     0.400  0.0153 -0.1265  0.9919
              Bcc     0.0236     3.160     1.128     1.054  0.4312  0.8958  0.1076
 
              Baa    -0.0086    -4.566    -1.629    -1.523  0.7589 -0.6332 -0.1518
    14 H(1)   Bbb    -0.0049    -2.629    -0.938    -0.877 -0.0751 -0.3167  0.9456
              Bcc     0.0135     7.194     2.567     2.400  0.6468  0.7062  0.2879
 
              Baa    -0.0243    -3.256    -1.162    -1.086  0.8309 -0.1225 -0.5427
    15 C(13)  Bbb    -0.0007    -0.091    -0.032    -0.030  0.0664  0.9903 -0.1219
              Bcc     0.0249     3.347     1.194     1.116  0.5524  0.0653  0.8310
 
              Baa    -0.0079    -4.202    -1.499    -1.402  0.7284 -0.0739 -0.6811
    16 H(1)   Bbb    -0.0054    -2.876    -1.026    -0.959  0.0911  0.9958 -0.0106
              Bcc     0.0133     7.078     2.525     2.361  0.6791 -0.0543  0.7321
 
              Baa    -0.0302    -4.046    -1.444    -1.350  0.8904  0.1287  0.4367
    17 C(13)  Bbb     0.0067     0.892     0.318     0.298  0.0035  0.9572 -0.2893
              Bcc     0.0235     3.154     1.125     1.052 -0.4553  0.2591  0.8518
 
              Baa    -0.0084    -4.468    -1.594    -1.490  0.7613  0.2372  0.6035
    18 H(1)   Bbb    -0.0051    -2.711    -0.967    -0.904  0.0964  0.8790 -0.4670
              Bcc     0.0135     7.179     2.561     2.395 -0.6412  0.4137  0.6463
 
              Baa    -0.0224    -3.007    -1.073    -1.003  0.8138  0.5812 -0.0014
    19 C(13)  Bbb    -0.0027    -0.364    -0.130    -0.121 -0.0565  0.0816  0.9951
              Bcc     0.0251     3.371     1.203     1.125 -0.5784  0.8097 -0.0993
 
              Baa    -0.0077    -4.109    -1.466    -1.371  0.7331  0.6773 -0.0623
    20 H(1)   Bbb    -0.0056    -2.970    -1.060    -0.991 -0.0758  0.1723  0.9821
              Bcc     0.0133     7.079     2.526     2.361 -0.6759  0.7152 -0.1776
 
              Baa    -2.2785   -39.448   -14.076   -13.158  0.9997  0.0004 -0.0248
    21 Fe(57) Bbb     1.1378    19.699     7.029     6.571  0.0246  0.1321  0.9909
              Bcc     1.1407    19.748     7.047     6.587 -0.0037  0.9912 -0.1320
 

 ---------------------------------------------------------------------------------

 No NMR shielding tensors so no spin-rotation constants.
 Leave Link  601 at Fri Jan 31 17:24:58 2025, MaxMem= 13421772800 cpu:              30.0 elap:               0.4
 (Enter /gpfs/fs1/soft/improv/software/custom-built/gaussian/g16/l9999.exe)
 Unable to Open any file for archive entry.
 1\1\GINC-I467\SP\UB3LYP\Gen\C10H10Fe1(1+,2)\HHARB\31-Jan-2025\0\\#p ub
 3lyp scf=(novaracc,maxcycles=1000,fermi,xqc) empiricaldispersion=gd3 g
 eom=allcheck guess=read chkbasis scrf=(cpcm,solvent=acetonitrile)\\Tit
 le Card Required\\1,2\C,-0.6355458342,0.5931960387,0.0137358209\H,0.22
 65245039,1.2441318825,0.0113057356\C,-1.2738203952,0.0348979222,-1.137
 0335195\H,-0.9693268193,0.1731072867,-2.1642526749\C,-2.3817075748,-0.
 746597069,-0.6832071145\H,-3.0743640093,-1.2923299391,-1.3070162395\C,
 -1.3450553429,0.1521605951,1.1658649989\H,-1.1319712729,0.4332861149,2
 .1871882375\C,-2.4184965416,-0.6709392258,0.7375555897\H,-3.1611409224
 ,-1.1248954896,1.3776510751\C,-2.6659245819,3.3081046615,0.0560805398\
 H,-1.8312642643,3.9089845,0.3861993853\C,-2.9692159574,2.9555542451,-1
 .2964425491\H,-2.3971845716,3.2305266385,-2.1705559075\C,-4.1571278251
 ,2.1697032569,-1.287793053\H,-4.6262236731,1.7198159065,-2.151023768\C
 ,-3.6711357776,2.7304993055,0.8914105529\H,-3.7201110878,2.798436867,1
 .9684584879\C,-4.5878079401,2.0327125598,0.0574070391\H,-5.4380317988,
 1.4567623939,0.3932071444\Fe,-2.6076303136,1.2578110087,-0.1507949313\
 \Version=ES64L-G16RevC.02\State=2-A\HF=-1650.6076697\S2=0.780793\S2-1=
 0.\S2A=0.750608\RMSD=2.809e-09\Dipole=-0.0653301,-0.0411823,0.0504786\
 Quadrupole=0.2419364,-1.6334873,1.3915509,1.8344572,0.0700052,-0.04672
 18\PG=C01 [X(C10H10Fe1)]\\@
 The archive entry for this job was punched.


 I KNOW YOU BELIEVE YOU UNDERSTAND WHAT YOU THINK I SAID,
 BUT I AM NOT SURE YOU REALIZE THAT WHAT YOU HEARD IS NOT WHAT I MEANT.
 Job cpu time:       0 days  1 hours 35 minutes 12.5 seconds.
 Elapsed time:       0 days  0 hours  0 minutes 51.9 seconds.
 File lengths (MBytes):  RWF=    140 Int=      0 D2E=      0 Chk=     48 Scr=      1
 Normal termination of Gaussian 16 at Fri Jan 31 17:24:58 2025.
