 Entering Gaussian System, Link 0=g16
 Input=Ferrocene_0_gas.com
 Output=Ferrocene_0_gas.log
 Initial command:
 /gpfs/fs1/soft/improv/software/custom-built/gaussian/g16/l1.exe "/scratch/Gau-1204248.inp" -scrdir="/scratch/"
 Default CPUs for threads: 0-127
 Default linda workers: i372.lcrc.anl.gov
 Default is to use 128 SMP processors on each worker.
 Entering Link 1 = /gpfs/fs1/soft/improv/software/custom-built/gaussian/g16/l1.exe PID=   1204249.
  
 Copyright (c) 1988-2021, Gaussian, Inc.  All Rights Reserved.
  
 This is part of the Gaussian(R) 16 program.  It is based on
 the Gaussian(R) 09 system (copyright 2009, Gaussian, Inc.),
 the Gaussian(R) 03 system (copyright 2003, Gaussian, Inc.),
 the Gaussian(R) 98 system (copyright 1998, Gaussian, Inc.),
 the Gaussian(R) 94 system (copyright 1995, Gaussian, Inc.),
 the Gaussian 92(TM) system (copyright 1992, Gaussian, Inc.),
 the Gaussian 90(TM) system (copyright 1990, Gaussian, Inc.),
 the Gaussian 88(TM) system (copyright 1988, Gaussian, Inc.),
 the Gaussian 86(TM) system (copyright 1986, Carnegie Mellon
 University), and the Gaussian 82(TM) system (copyright 1983,
 Carnegie Mellon University). Gaussian is a federally registered
 trademark of Gaussian, Inc.
  
 This software contains proprietary and confidential information,
 including trade secrets, belonging to Gaussian, Inc.
  
 This software is provided under written license and may be
 used, copied, transmitted, or stored only in accord with that
 written license.
  
 The following legend is applicable only to US Government
 contracts under FAR:
  
                    RESTRICTED RIGHTS LEGEND
  
 Use, reproduction and disclosure by the US Government is
 subject to restrictions as set forth in subparagraphs (a)
 and (c) of the Commercial Computer Software - Restricted
 Rights clause in FAR 52.227-19.
  
 Gaussian, Inc.
 340 Quinnipiac St., Bldg. 40, Wallingford CT 06492
  
  
 ---------------------------------------------------------------
 Warning -- This program may not be used in any manner that
 competes with the business of Gaussian, Inc. or will provide
 assistance to any competitor of Gaussian, Inc.  The licensee
 of this program is prohibited from giving any competitor of
 Gaussian, Inc. access to this program.  By using this program,
 the user acknowledges that Gaussian, Inc. is engaged in the
 business of creating and licensing software in the field of
 computational chemistry and represents and warrants to the
 licensee that it is not a competitor of Gaussian, Inc. and that
 it will not use this program in any manner prohibited above.
 ---------------------------------------------------------------
  

 Cite this work as:
 Gaussian 16, Revision C.02,
 M. J. Frisch, G. W. Trucks, H. B. Schlegel, G. E. Scuseria, 
 M. A. Robb, J. R. Cheeseman, G. Scalmani, V. Barone, 
 G. A. Petersson, H. Nakatsuji, X. Li, M. Caricato, A. V. Marenich, 
 J. Bloino, B. G. Janesko, R. Gomperts, B. Mennucci, H. P. Hratchian, 
 J. V. Ortiz, A. F. Izmaylov, J. L. Sonnenberg, D. Williams-Young, 
 F. Ding, F. Lipparini, F. Egidi, J. Goings, B. Peng, A. Petrone, 
 T. Henderson, D. Ranasinghe, V. G. Zakrzewski, J. Gao, N. Rega, 
 G. Zheng, W. Liang, M. Hada, M. Ehara, K. Toyota, R. Fukuda, 
 J. Hasegawa, M. Ishida, T. Nakajima, Y. Honda, O. Kitao, H. Nakai, 
 T. Vreven, K. Throssell, J. A. Montgomery, Jr., J. E. Peralta, 
 F. Ogliaro, M. J. Bearpark, J. J. Heyd, E. N. Brothers, K. N. Kudin, 
 V. N. Staroverov, T. A. Keith, R. Kobayashi, J. Normand, 
 K. Raghavachari, A. P. Rendell, J. C. Burant, S. S. Iyengar, 
 J. Tomasi, M. Cossi, J. M. Millam, M. Klene, C. Adamo, R. Cammi, 
 J. W. Ochterski, R. L. Martin, K. Morokuma, O. Farkas, 
 J. B. Foresman, and D. J. Fox, Gaussian, Inc., Wallingford CT, 2019.
 
 ******************************************
 Gaussian 16:  ES64L-G16RevC.02  7-Dec-2021
                31-Jan-2025 
 ******************************************
 %chk=Ferrocene_0_gas
 SetSPE:  set environment variable "OMP_PROC_BIND" = "true"
 SetSPE:  set environment variable "OMP_PLACES" = "{0},{1},{2},{3},{4},{5},{6},{7},{8},{9},{10},{11},{12},{13},{14},{15},{16},{17},{18},{19},{20},{21},{22},{23},{24},{25},{26},{27},{28},{29},{30},{31},{32},{33},{34},{35},{36},{37},{38},{39},{40},{41},{42},{43},{44},{45},{46},{47},{48},{49},{50},{51},{52},{53},{54},{55},{56},{57},{58},{59},{60},{61},{62},{63},{64},{65},{66},{67},{68},{69},{70},{71},{72},{73},{74},{75},{76},{77},{78},{79},{80},{81},{82},{83},{84},{85},{86},{87},{88},{89},{90},{91},{92},{93},{94},{95},{96},{97},{98},{99},{100},{101},{102},{103},{104},{105},{106},{107},{108},{109},{110},{111},{112},{113},{114},{115},{116},{117},{118},{119},{120},{121},{122},{123},{124},{125},{126},{127}"
 SetLPE:    new flags="-opt 'Tsnet.Node.lindarsharg: ssh'  -nodelist 'i372.lcrc.anl.gov' -env GAUSS_MDEF=13421772800 -env GAUSS_EXEDIR="/gpfs/fs1/soft/improv/software/custom-built/gaussian/g16/bsd:/gpfs/fs1/soft/improv/software/custom-built/gaussian/g16" -env "OMP_PROC_BIND=true" -env "OMP_PLACES={0},{1},{2},{3},{4},{5},{6},{7},{8},{9},{10},{11},{12},{13},{14},{15},{16},{17},{18},{19},{20},{21},{22},{23},{24},{25},{26},{27},{28},{29},{30},{31},{32},{33},{34},{35},{36},{37},{38},{39},{40},{41},{42},{43},{44},{45},{46},{47},{48},{49},{50},{51},{52},{53},{54},{55},{56},{57},{58},{59},{60},{61},{62},{63},{64},{65},{66},{67},{68},{69},{70},{71},{72},{73},{74},{75},{76},{77},{78},{79},{80},{81},{82},{83},{84},{85},{86},{87},{88},{89},{90},{91},{92},{93},{94},{95},{96},{97},{98},{99},{100},{101},{102},{103},{104},{105},{106},{107},{108},{109},{110},{111},{112},{113},{114},{115},{116},{117},{118},{119},{120},{121},{122},{123},{124},{125},{126},{127}" -env GAUSS_ADEF="0,1,2,3,4,5,6,7,8,9,10,11,12,13,14,15,16,17,18,19,20,21,22,23,24,25,26,27,28,29,30,31,32,33,34,35,36,37,38,39,40,41,42,43,44,45,46,47,48,49,50,51,52,53,54,55,56,57,58,59,60,61,62,63,64,65,66,67,68,69,70,71,72,73,74,75,76,77,78,79,80,81,82,83,84,85,86,87,88,89,90,91,92,93,94,95,96,97,98,99,100,101,102,103,104,105,106,107,108,109,110,111,112,113,114,115,116,117,118,119,120,121,122,123,124,125,126,127""
 Will use up to    1 processors via Linda.
 ----------------------------------------------------------------------
 #p ub3lyp 6-31G(2df,p) opt=(calcfc,cartesian) freq scf=(novaracc,maxcy
 cles=1000,fermi,xqc) empiricaldispersion=gd3
 ----------------------------------------------------------------------
 1/10=4,18=10,26=3,38=1/1,3;
 2/12=2,17=6,18=5,29=2,40=1/2;
 3/5=1,6=6,7=104,11=2,25=1,30=1,71=2,74=-5,116=2,124=31,140=1/1,2,3;
 4//1;
 5/5=2,7=1000,8=3,13=1,22=13,38=1/2,8;
 8/6=4,10=90,11=11/1;
 11/6=1,8=1,9=11,15=111,16=1/1,2,10;
 10/6=1,13=1/2;
 6/7=2,8=2,9=2,10=2,28=1/1;
 7/7=1,10=1,25=1/1,2,3,16;
 1/10=4,18=10,26=3/3(2);
 2/29=1/2;
 99/12=1/99;
 2/29=1/2;
 3/5=1,6=6,7=104,11=2,25=1,30=1,71=1,74=-5,116=2,124=31/1,2,3;
 4/5=5,16=3,69=1/1;
 5/5=2,7=1000,8=3,13=1,22=13,38=1/2,8;
 7/7=1/1,2,3,16;
 1/18=10,26=3/3(-5);
 2/29=1/2;
 6/7=2,8=2,9=2,10=2,19=2,28=1/1;
 99/9=1,12=1/99;
 Leave Link    1 at Fri Jan 31 16:24:34 2025, MaxMem=           0 cpu:               4.6 elap:               0.1
 (Enter /gpfs/fs1/soft/improv/software/custom-built/gaussian/g16/l101.exe)
 -------------------
 Title Card Required
 -------------------
 Symbolic Z-matrix:
 Charge =  0 Multiplicity = 1
 C                    -0.74452   0.87741   0.0214 
 H                     0.22696   1.32261   0.07553 
 C                    -1.276     0.11699  -1.19828 
 H                    -1.21542   0.55043  -2.17468 
 C                    -2.46078  -0.64075  -0.79994 
 H                    -3.31149  -0.75911  -1.43806 
 C                    -1.46691   0.24841   1.2156 
 H                    -1.55563   0.78629   2.13631 
 C                    -2.58205  -0.55623   0.7242 
 H                    -3.52296  -0.61      1.23084 
 C                    -2.58427   3.26569   0.04375 
 H                    -1.60962   3.59333   0.33975 
 C                    -2.80582   2.65485  -1.33551 
 H                    -2.41171   3.06695  -2.24091 
 C                    -4.06485   1.98735  -1.28727 
 H                    -4.33787   1.26173  -2.02472 
 C                    -3.44521   2.43641   0.9908 
 H                    -3.58715   2.66406   2.02662 
 C                    -4.47092   1.85481   0.18647 
 H                    -5.04819   1.02995   0.54879 
 Fe                   -2.56215   1.21376  -0.14274 
 
 ITRead=  0  0  0  0  0  0  0  0  0  0  0  0  0  0  0  0  0  0  0  0
 ITRead=  0
 MicOpt= -1 -1 -1 -1 -1 -1 -1 -1 -1 -1 -1 -1 -1 -1 -1 -1 -1 -1 -1 -1
 MicOpt= -1
 NAtoms=     21 NQM=       21 NQMF=       0 NMMI=      0 NMMIF=      0
                NMic=       0 NMicF=      0.
                    Isotopes and Nuclear Properties:
 (Nuclear quadrupole moments (NQMom) in fm**2, nuclear magnetic moments (NMagM)
  in nuclear magnetons)

  Atom         1           2           3           4           5           6           7           8           9          10
 IAtWgt=          12           1          12           1          12           1          12           1          12           1
 AtmWgt=  12.0000000   1.0078250  12.0000000   1.0078250  12.0000000   1.0078250  12.0000000   1.0078250  12.0000000   1.0078250
 NucSpn=           0           1           0           1           0           1           0           1           0           1
 AtZEff=  -0.0000000  -0.0000000  -0.0000000  -0.0000000  -0.0000000  -0.0000000  -0.0000000  -0.0000000  -0.0000000  -0.0000000
 NQMom=    0.0000000   0.0000000   0.0000000   0.0000000   0.0000000   0.0000000   0.0000000   0.0000000   0.0000000   0.0000000
 NMagM=    0.0000000   2.7928460   0.0000000   2.7928460   0.0000000   2.7928460   0.0000000   2.7928460   0.0000000   2.7928460
 AtZNuc=   6.0000000   1.0000000   6.0000000   1.0000000   6.0000000   1.0000000   6.0000000   1.0000000   6.0000000   1.0000000

  Atom        11          12          13          14          15          16          17          18          19          20
 IAtWgt=          12           1          12           1          12           1          12           1          12           1
 AtmWgt=  12.0000000   1.0078250  12.0000000   1.0078250  12.0000000   1.0078250  12.0000000   1.0078250  12.0000000   1.0078250
 NucSpn=           0           1           0           1           0           1           0           1           0           1
 AtZEff=  -0.0000000  -0.0000000  -0.0000000  -0.0000000  -0.0000000  -0.0000000  -0.0000000  -0.0000000  -0.0000000  -0.0000000
 NQMom=    0.0000000   0.0000000   0.0000000   0.0000000   0.0000000   0.0000000   0.0000000   0.0000000   0.0000000   0.0000000
 NMagM=    0.0000000   2.7928460   0.0000000   2.7928460   0.0000000   2.7928460   0.0000000   2.7928460   0.0000000   2.7928460
 AtZNuc=   6.0000000   1.0000000   6.0000000   1.0000000   6.0000000   1.0000000   6.0000000   1.0000000   6.0000000   1.0000000

  Atom        21
 IAtWgt=          56
 AtmWgt=  55.9349393
 NucSpn=           0
 AtZEff=  -0.0000000
 NQMom=    0.0000000
 NMagM=    0.0000000
 AtZNuc=  26.0000000
 Leave Link  101 at Fri Jan 31 16:24:34 2025, MaxMem= 13421772800 cpu:               0.4 elap:               0.1
 (Enter /gpfs/fs1/soft/improv/software/custom-built/gaussian/g16/l103.exe)

 GradGradGradGradGradGradGradGradGradGradGradGradGradGradGradGradGradGrad
 Berny optimization.
 Initialization pass.
 No Z-matrix variables, so optimization will use Cartesian coordinates.
 Trust Radius=3.00D-01 FncErr=1.00D-07 GrdErr=1.00D-06 EigMax=2.50D+02 EigMin=1.00D-04
 Number of steps in this run=     73 maximum allowed number of steps=    126.
 GradGradGradGradGradGradGradGradGradGradGradGradGradGradGradGradGradGrad

 Leave Link  103 at Fri Jan 31 16:24:34 2025, MaxMem= 13421772800 cpu:               0.4 elap:               0.0
 (Enter /gpfs/fs1/soft/improv/software/custom-built/gaussian/g16/l202.exe)
 ---------------------------------------------------------------------------------------------------
                            Z-MATRIX (ANGSTROMS AND DEGREES)
   CD    Cent   Atom    N1       Length/X        N2       Alpha/Y        N3        Beta/Z          J
 ---------------------------------------------------------------------------------------------------
      1      1  C        0  -0.744517          0.877405          0.021396
      2      2  H        0   0.226956          1.322612          0.075527
      3      3  C        0  -1.276004          0.116992         -1.198281
      4      4  H        0  -1.215421          0.550427         -2.174685
      5      5  C        0  -2.460783         -0.640746         -0.799942
      6      6  H        0  -3.311487         -0.759109         -1.438058
      7      7  C        0  -1.466911          0.248405          1.215597
      8      8  H        0  -1.555630          0.786293          2.136306
      9      9  C        0  -2.582046         -0.556230          0.724197
     10     10  H        0  -3.522959         -0.609998          1.230845
     11     11  C        0  -2.584268          3.265690          0.043751
     12     12  H        0  -1.609622          3.593335          0.339747
     13     13  C        0  -2.805824          2.654848         -1.335506
     14     14  H        0  -2.411711          3.066947         -2.240906
     15     15  C        0  -4.064849          1.987346         -1.287269
     16     16  H        0  -4.337873          1.261725         -2.024719
     17     17  C        0  -3.445212          2.436413          0.990797
     18     18  H        0  -3.587147          2.664055          2.026621
     19     19  C        0  -4.470918          1.854810          0.186474
     20     20  H        0  -5.048186          1.029955          0.548795
     21     21  Fe       0  -2.562151          1.213755         -0.142743
 ---------------------------------------------------------------------------------------------------
                         Z-Matrix orientation:                         
 ---------------------------------------------------------------------
 Center     Atomic      Atomic             Coordinates (Angstroms)
 Number     Number       Type             X           Y           Z
 ---------------------------------------------------------------------
      1          6           0       -0.744517    0.877405    0.021396
      2          1           0        0.226956    1.322612    0.075527
      3          6           0       -1.276004    0.116992   -1.198281
      4          1           0       -1.215421    0.550427   -2.174685
      5          6           0       -2.460783   -0.640746   -0.799942
      6          1           0       -3.311487   -0.759109   -1.438058
      7          6           0       -1.466911    0.248405    1.215597
      8          1           0       -1.555630    0.786293    2.136306
      9          6           0       -2.582046   -0.556230    0.724197
     10          1           0       -3.522959   -0.609998    1.230845
     11          6           0       -2.584268    3.265690    0.043751
     12          1           0       -1.609622    3.593335    0.339747
     13          6           0       -2.805824    2.654848   -1.335506
     14          1           0       -2.411711    3.066947   -2.240906
     15          6           0       -4.064849    1.987346   -1.287269
     16          1           0       -4.337873    1.261725   -2.024719
     17          6           0       -3.445212    2.436413    0.990797
     18          1           0       -3.587147    2.664055    2.026621
     19          6           0       -4.470918    1.854810    0.186474
     20          1           0       -5.048186    1.029955    0.548795
     21         26           0       -2.562151    1.213755   -0.142743
 ---------------------------------------------------------------------
                    Distance matrix (angstroms):
                    1          2          3          4          5
     1  C    0.000000
     2  H    1.070000   0.000000
     3  C    1.532422   2.309761   0.000000
     4  H    2.269677   2.782117   1.070000   0.000000
     5  C    2.434121   3.441680   1.461692   2.204481   0.000000
     6  H    3.376021   4.375510   2.228955   2.578952   1.070000
     7  C    1.530886   2.307134   2.424979   3.412986   2.416768
     8  H    2.266948   2.777060   3.412569   4.330822   3.387816
     9  C    2.434287   3.441121   2.419689   3.390556   1.531290
    10  H    3.375629   4.373969   3.387916   4.274219   2.291999
    11  C    3.014811   3.417535   3.628842   3.764021   3.998413
    12  H    2.868105   2.932408   3.815991   3.966995   4.466633
    13  C    3.041294   3.600503   2.966461   2.768067   3.356609
    14  H    3.562533   3.920604   3.328533   2.787180   3.978162
    15  C    3.737536   4.551778   3.359137   3.312323   3.117272
    16  H    4.152889   5.025177   3.371714   3.205954   2.939888
    17  C    3.265577   3.945008   3.857102   4.306876   3.693880
    18  H    3.910702   4.489279   4.714754   5.267208   4.492201
    19  C    3.855987   4.729225   3.891662   4.227854   3.352829
    20  H    4.338547   5.304409   4.256187   4.726243   3.362289
    21  Fe   1.855765   2.799752   1.992793   2.526356   1.970117
                    6          7          8          9         10
     6  H    0.000000
     7  C    3.385178   0.000000
     8  H    4.271695   1.070000   0.000000
     9  C    2.290981   1.460287   2.202260   0.000000
    10  H    2.681417   2.228098   2.576795   1.070000   0.000000
    11  C    4.350128   3.424283   3.403570   3.882021   4.160684
    12  H    5.000070   3.460641   3.333170   4.279287   4.703501
    13  C    3.452726   3.753902   4.136177   3.821449   4.214221
    14  H    4.011591   4.558974   5.009416   4.684897   5.177630
    15  C    2.851895   4.004689   4.411300   3.565737   3.657969
    16  H    2.341241   4.446221   5.028025   3.734224   3.842672
    17  C    4.016040   2.958308   2.757826   3.126026   3.056842
    18  H    4.878324   3.314894   2.768588   3.616182   3.369986
    19  C    3.288762   3.558607   3.666398   3.109678   2.839826
    20  H    3.188175   3.725718   3.844153   2.937447   2.341144
    21  Fe   2.476195   1.994126   2.527819   1.970997   2.477089
                   11         12         13         14         15
    11  C    0.000000
    12  H    1.070000   0.000000
    13  C    1.524652   2.262328   0.000000
    14  H    2.299768   2.753217   1.070000   0.000000
    15  C    2.365988   3.354776   1.425844   2.192676   0.000000
    16  H    3.371880   4.297727   2.182425   2.648709   1.070000
    17  C    1.525064   2.265331   2.422440   3.451029   2.403163
    18  H    2.302066   2.760382   3.451731   4.444746   3.415846
    19  C    2.360170   3.351564   2.393538   3.406140   1.534398
    20  H    3.365186   4.293989   3.349486   4.345431   2.292308
    21  Fe   2.060511   2.608162   1.886481   2.803434   2.041197
                   16         17         18         19         20
    16  H    0.000000
    17  C    3.357092   0.000000
    18  H    4.352411   1.070000   0.000000
    19  C    2.293213   1.427330   2.195921   0.000000
    20  H    2.679783   2.177847   2.643651   1.070000   0.000000
    21  Fe   2.587919   1.886690   2.803592   2.040276   2.586963
                   21
    21  Fe   0.000000
 Stoichiometry    C10H10Fe
 Framework group  C1[X(C10H10Fe)]
 Deg. of freedom    57
 Full point group                 C1      NOp   1
 Largest Abelian subgroup         C1      NOp   1
 Largest concise Abelian subgroup C1      NOp   1
                         Standard orientation:                         
 ---------------------------------------------------------------------
 Center     Atomic      Atomic             Coordinates (Angstroms)
 Number     Number       Type             X           Y           Z
 ---------------------------------------------------------------------
      1          6           0       -1.385604   -0.216884    1.257091
      2          1           0       -1.607781   -0.392283    2.288969
      3          6           0       -1.568349   -1.258674    0.148221
      4          1           0       -1.166558   -2.244045    0.260060
      5          6           0       -1.512424   -0.581920   -1.146159
      6          1           0       -1.045698   -1.017038   -2.005076
      7          6           0       -1.573222    1.131586    0.557064
      8          1           0       -1.174755    2.024556    0.991494
      9          6           0       -1.513839    0.927392   -0.887656
     10          1           0       -1.047795    1.625664   -1.551071
     11          6           0        1.613499    0.090470    1.254634
     12          1           0        1.272880    0.155728    2.266870
     13          6           0        1.382249   -1.180182    0.444367
     14          1           0        1.563313   -2.166718    0.817008
     15          6           0        1.586707   -0.833237   -0.923426
     16          1           0        1.234584   -1.461415   -1.714818
     17          6           0        1.370058    1.236533    0.278368
     18          1           0        1.540680    2.267302    0.509244
     19          6           0        1.584265    0.697734   -1.025887
     20          1           0        1.230775    1.212308   -1.894886
     21         26           0       -0.026911   -0.003114    0.011250
 ---------------------------------------------------------------------
 Rotational constants (GHZ):           2.0709620           1.2322389           1.2128305
 Leave Link  202 at Fri Jan 31 16:24:34 2025, MaxMem= 13421772800 cpu:               0.5 elap:               0.1
 (Enter /gpfs/fs1/soft/improv/software/custom-built/gaussian/g16/l301.exe)
 Standard basis: 6-31G(2df,p) (6D, 7F)
 Ernie: Thresh=  0.10000D-02 Tol=  0.10000D-05 Strict=F.
 There are   424 symmetry adapted cartesian basis functions of A   symmetry.
 There are   382 symmetry adapted basis functions of A   symmetry.
   382 basis functions,   639 primitive gaussians,   424 cartesian basis functions
    48 alpha electrons       48 beta electrons
       nuclear repulsion energy       942.7790987987 Hartrees.
 IExCor=  402 DFT=T Ex+Corr=B3LYP ExCW=0 ScaHFX=  0.200000
 ScaDFX=  0.800000  0.720000  1.000000  0.810000 ScalE2=  1.000000  1.000000
 IRadAn=      5 IRanWt=     -1 IRanGd=            0 ICorTp=0 IEmpDi=131
 NAtoms=   21 NActive=   21 NUniq=   21 SFac= 1.00D+00 NAtFMM=   60 NAOKFM=F Big=F
 Integral buffers will be    131072 words long.
 Raffenetti 2 integral format.
 Two-electron integral symmetry is turned on.
 R6Disp:  Grimme-D3 Dispersion energy=       -0.0241932874 Hartrees.
 Nuclear repulsion after empirical dispersion term =      942.7549055113 Hartrees.
 Leave Link  301 at Fri Jan 31 16:24:34 2025, MaxMem= 13421772800 cpu:               0.4 elap:               0.0
 (Enter /gpfs/fs1/soft/improv/software/custom-built/gaussian/g16/l302.exe)
 NPDir=0 NMtPBC=     1 NCelOv=     1 NCel=       1 NClECP=     1 NCelD=      1
         NCelK=      1 NCelE2=     1 NClLst=     1 CellRange=     0.0.
 One-electron integrals computed using PRISM.
 One-electron integral symmetry used in STVInt
 NBasis=   382 RedAO= T EigKep=  4.54D-04  NBF=   382
 NBsUse=   382 1.00D-06 EigRej= -1.00D+00 NBFU=   382
 Precomputing XC quadrature grid using
 IXCGrd= 4 IRadAn=           5 IRanWt=          -1 IRanGd=           0 AccXCQ= 0.00D+00.
 Generated NRdTot=       0 NPtTot=           0 NUsed=           0 NTot=          32
 NSgBfM=   424   424   424   424   424 MxSgAt=    21 MxSgA2=    21.
 Leave Link  302 at Fri Jan 31 16:24:35 2025, MaxMem= 13421772800 cpu:              25.2 elap:               0.3
 (Enter /gpfs/fs1/soft/improv/software/custom-built/gaussian/g16/l303.exe)
 DipDrv:  MaxL=1.
 Leave Link  303 at Fri Jan 31 16:24:35 2025, MaxMem= 13421772800 cpu:               1.3 elap:               0.1
 (Enter /gpfs/fs1/soft/improv/software/custom-built/gaussian/g16/l401.exe)
 ExpMin= 4.11D-02 ExpMax= 6.11D+04 ExpMxC= 9.18D+03 IAcc=3 IRadAn=         5 AccDes= 0.00D+00
 Harris functional with IExCor=  402 and IRadAn=       5 diagonalized for initial guess.
 HarFok:  IExCor=  402 AccDes= 0.00D+00 IRadAn=         5 IDoV= 1 UseB2=F ITyADJ=14
 ICtDFT=  3500011 ScaDFX=  1.000000  1.000000  1.000000  1.000000
 FoFCou: FMM=F IPFlag=           0 FMFlag=      100000 FMFlg1=           0
         NFxFlg=           0 DoJE=T BraDBF=F KetDBF=T FulRan=T
         wScrn=  0.000000 ICntrl=       500 IOpCl=  0 I1Cent=   200000004 NGrid=           0
         NMat0=    1 NMatS0=      1 NMatT0=    0 NMatD0=    1 NMtDS0=    0 NMtDT0=    0
 Petite list used in FoFCou.
 Harris En= -1650.71272048859    
 JPrj=0 DoOrth=F DoCkMO=F.
 Initial guess <Sx>= 0.0000 <Sy>= 0.0000 <Sz>= 0.0000 <S**2>=-0.0000 S=-0.0000
 Leave Link  401 at Fri Jan 31 16:24:36 2025, MaxMem= 13421772800 cpu:              49.9 elap:               0.6
 (Enter /gpfs/fs1/soft/improv/software/custom-built/gaussian/g16/l502.exe)
 Integral symmetry usage will be decided dynamically.
 UHF open shell SCF:
 Using DIIS extrapolation, IDIIS=    10.
 NGot= 13421772800 LenX= 13421354398 LenY= 13421174181
 Requested convergence on RMS density matrix=1.00D-08 within 128 cycles.
 Requested convergence on MAX density matrix=1.00D-06.
 Requested convergence on             energy=1.00D-06.
 Level shift goal  0.100 maximum shift  0.100.
 No special actions if energy rises.
 Dynamic level shift is on during FON iterations.
 Fock matrices will be formed incrementally for  20 cycles.

 Cycle   1  Pass 1  IDiag  1:
 FoFJK:  IHMeth= 1 ICntrl=       0 DoSepK=F KAlg= 0 I1Cent=           0 FoldK=F
 IRaf= 980000000 NMat=       1 IRICut=       1 DoRegI=T DoRafI=F ISym2E= 0 IDoP0=0 IntGTp=1.
 FoFCou: FMM=F IPFlag=           0 FMFlag=      100000 FMFlg1=           0
         NFxFlg=           0 DoJE=F BraDBF=F KetDBF=F FulRan=T
         wScrn=  0.000000 ICntrl=         0 IOpCl=  1 I1Cent=           0 NGrid=           0
         NMat0=    1 NMatS0=      1 NMatT0=    0 NMatD0=    1 NMtDS0=    0 NMtDT0=    0
 Symmetry not used in FoFCou.
 E= -1650.31168614491    
 DIIS: error= 2.66D-02 at cycle   1 NSaved=   1.
 NSaved= 1 IEnMin= 1 EnMin= -1650.31168614491     IErMin= 1 ErrMin= 2.66D-02
 ErrMax= 2.66D-02  0.00D+00 EMaxC= 1.00D+00 BMatC= 1.62D+00 BMatP= 1.62D+00
 IDIUse=1 WtCom= 1.00D+00 WtEn= 0.00D+00
 Coeff-Com:  0.100D+01
 Coeff:      0.100D+01
 Gap=     0.259 Goal=     0.100 Shift=    0.000
 T= 1424. Gap= 0.183 NK=0 IS=   49 IE=  382 IFin=   48
          NO(<0.9)=   0  NV(>0.1)=   0     48.00e < EF      0.00e >EF  Err=0.0D+00
 Gap=     0.259 Goal=     0.100 Shift=    0.000
 T= 1424. Gap= 0.183 NK=0 IS=   49 IE=  382 IFin=   48
          NO(<0.9)=   0  NV(>0.1)=   0     48.00e < EF      0.00e >EF  Err=0.0D+00
 GapD=    0.259 DampG=1.000 DampE=0.250 DampFc=0.2500 IDamp=-1.
 Damping current iteration by 2.50D-01
 RMSDP=4.13D-03 MaxDP=1.67D-01              OVMax= 2.16D-01

 Cycle   2  Pass 1  IDiag  1:
 RMSU=  1.02D-03    CP:  9.92D-01
 E= -1650.39764195779     Delta-E=       -0.085955812879 Rises=F Damp=T
 DIIS: error= 1.34D-02 at cycle   2 NSaved=   2.
 NSaved= 2 IEnMin= 2 EnMin= -1650.39764195779     IErMin= 2 ErrMin= 1.34D-02
 ErrMax= 1.34D-02  0.00D+00 EMaxC= 1.00D+00 BMatC= 4.02D-01 BMatP= 1.62D+00
 IDIUse=1 WtCom= 1.00D+00 WtEn= 0.00D+00
 Coeff-Com: -0.116D-01 0.101D+01
 Coeff:     -0.116D-01 0.101D+01
 Gap=     0.281 Goal=     0.100 Shift=    0.000
 T= 1316. Gap= 0.114 NK=0 IS=   49 IE=  382 IFin=   48
          NO(<0.9)=   0  NV(>0.1)=   0     48.00e < EF      0.00e >EF  Err=0.0D+00
 Gap=     0.281 Goal=     0.100 Shift=    0.000
 T= 1316. Gap= 0.114 NK=0 IS=   49 IE=  382 IFin=   48
          NO(<0.9)=   0  NV(>0.1)=   0     48.00e < EF      0.00e >EF  Err=0.0D+00
 GapD=    0.281 DampG=1.000 DampE=0.500 DampFc=0.5000 IDamp=-1.
 Damping current iteration by 5.00D-01
 RMSDP=3.52D-03 MaxDP=1.49D-01 DE=-8.60D-02 OVMax= 4.28D-01

 Cycle   3  Pass 1  IDiag  1:
 RMSU=  1.72D-03    CP:  9.89D-01  1.34D+00
 E= -1650.25092244852     Delta-E=        0.146719509273 Rises=F Damp=T
 DIIS: error= 2.48D-02 at cycle   3 NSaved=   3.
 NSaved= 3 IEnMin= 2 EnMin= -1650.39764195779     IErMin= 2 ErrMin= 1.34D-02
 ErrMax= 2.48D-02  0.00D+00 EMaxC= 1.00D+00 BMatC= 1.82D+00 BMatP= 4.02D-01
 IDIUse=1 WtCom= 1.00D+00 WtEn= 0.00D+00
 Coeff-Com: -0.426D+00 0.999D+00 0.427D+00
 Coeff:     -0.426D+00 0.999D+00 0.427D+00
 Gap=     0.270 Goal=   None    Shift=    0.000
 T= 1299. Gap= 0.215 NK=4 IS=   49 IE=   58 IFin=   48
          NO(<0.9)=   0  NV(>0.1)=   0     48.00e < EF      0.00e >EF  Err=0.0D+00
 Gap=     0.270 Goal=   None    Shift=    0.000
 T= 1299. Gap= 0.215 NK=4 IS=   49 IE=   58 IFin=   48
          NO(<0.9)=   0  NV(>0.1)=   0     48.00e < EF      0.00e >EF  Err=0.0D+00
 RMSDP=1.50D-03 MaxDP=7.85D-02 DE= 1.47D-01 OVMax= 2.90D-01

 Cycle   4  Pass 1  IDiag  1:
 RMSU=  6.81D-04    CP:  9.85D-01  1.50D+00  2.32D-01
 E= -1650.63252621511     Delta-E=       -0.381603766592 Rises=F Damp=F
 DIIS: error= 5.18D-03 at cycle   4 NSaved=   4.
 NSaved= 4 IEnMin= 4 EnMin= -1650.63252621511     IErMin= 4 ErrMin= 5.18D-03
 ErrMax= 5.18D-03  0.00D+00 EMaxC= 1.00D+00 BMatC= 4.84D-02 BMatP= 4.02D-01
 IDIUse=1 WtCom= 1.00D+00 WtEn= 0.00D+00
 Coeff-Com: -0.942D-01 0.135D+00 0.181D+00 0.778D+00
 Coeff:     -0.942D-01 0.135D+00 0.181D+00 0.778D+00
 Gap=     0.213 Goal=     0.100 Shift=    0.000
 T= 1058. Gap= 0.212 NK=0 IS=   49 IE=  382 IFin=   48
          NO(<0.9)=   0  NV(>0.1)=   0     48.00e < EF      0.00e >EF  Err=0.0D+00
 Gap=     0.213 Goal=     0.100 Shift=    0.000
 T= 1058. Gap= 0.212 NK=0 IS=   49 IE=  382 IFin=   48
          NO(<0.9)=   0  NV(>0.1)=   0     48.00e < EF      0.00e >EF  Err=0.0D+00
 GapD=    0.213 DampG=1.000 DampE=1.000 DampFc=1.0000 IDamp=-1.
 RMSDP=2.68D-04 MaxDP=1.17D-02 DE=-3.82D-01 OVMax= 2.65D-02

 Cycle   5  Pass 1  IDiag  1:
 RMSU=  2.29D-04    CP:  9.86D-01  1.53D+00  3.00D-01  8.97D-01
 E= -1650.63864819684     Delta-E=       -0.006121981728 Rises=F Damp=F
 DIIS: error= 1.41D-03 at cycle   5 NSaved=   5.
 NSaved= 5 IEnMin= 5 EnMin= -1650.63864819684     IErMin= 5 ErrMin= 1.41D-03
 ErrMax= 1.41D-03  0.00D+00 EMaxC= 1.00D+00 BMatC= 1.01D-02 BMatP= 4.84D-02
 IDIUse=1 WtCom= 1.00D+00 WtEn= 0.00D+00
 Coeff-Com: -0.191D-01-0.454D-02 0.664D-01 0.477D+00 0.480D+00
 Coeff:     -0.191D-01-0.454D-02 0.664D-01 0.477D+00 0.480D+00
 Gap=     0.216 Goal=     0.100 Shift=    0.000
 T=  864. Gap= 0.215 NK=0 IS=   49 IE=  382 IFin=   48
          NO(<0.9)=   0  NV(>0.1)=   0     48.00e < EF      0.00e >EF  Err=0.0D+00
 Gap=     0.216 Goal=     0.100 Shift=    0.000
 T=  864. Gap= 0.215 NK=0 IS=   49 IE=  382 IFin=   48
          NO(<0.9)=   0  NV(>0.1)=   0     48.00e < EF      0.00e >EF  Err=0.0D+00
 GapD=    0.216 DampG=1.000 DampE=1.000 DampFc=1.0000 IDamp=-1.
 RMSDP=1.44D-04 MaxDP=8.57D-03 DE=-6.12D-03 OVMax= 1.57D-02

 Cycle   6  Pass 1  IDiag  1:
 RMSU=  8.84D-05    CP:  9.85D-01  1.55D+00  2.98D-01  9.57D-01  5.43D-01
 E= -1650.64087072580     Delta-E=       -0.002222528964 Rises=F Damp=F
 DIIS: error= 4.50D-04 at cycle   6 NSaved=   6.
 NSaved= 6 IEnMin= 6 EnMin= -1650.64087072580     IErMin= 6 ErrMin= 4.50D-04
 ErrMax= 4.50D-04  0.00D+00 EMaxC= 1.00D+00 BMatC= 8.40D-04 BMatP= 1.01D-02
 IDIUse=1 WtCom= 1.00D+00 WtEn= 0.00D+00
 Coeff-Com: -0.598D-03-0.111D-01 0.676D-02 0.132D+00 0.247D+00 0.626D+00
 Coeff:     -0.598D-03-0.111D-01 0.676D-02 0.132D+00 0.247D+00 0.626D+00
 Gap=     0.216 Goal=     0.100 Shift=    0.000
 Gap=     0.216 Goal=     0.100 Shift=    0.000
 RMSDP=4.65D-05 MaxDP=2.60D-03 DE=-2.22D-03 OVMax= 4.58D-03

 Cycle   7  Pass 1  IDiag  1:
 RMSU=  3.04D-05    CP:  9.85D-01  1.55D+00  2.88D-01  9.64D-01  6.32D-01
                    CP:  7.62D-01
 E= -1650.64103767743     Delta-E=       -0.000166951627 Rises=F Damp=F
 DIIS: error= 1.52D-04 at cycle   7 NSaved=   7.
 NSaved= 7 IEnMin= 7 EnMin= -1650.64103767743     IErMin= 7 ErrMin= 1.52D-04
 ErrMax= 1.52D-04  0.00D+00 EMaxC= 1.00D+00 BMatC= 1.24D-04 BMatP= 8.40D-04
 IDIUse=1 WtCom= 1.00D+00 WtEn= 0.00D+00
 Coeff-Com:  0.206D-02-0.683D-02-0.161D-02 0.354D-01 0.100D+00 0.362D+00
 Coeff-Com:  0.509D+00
 Coeff:      0.206D-02-0.683D-02-0.161D-02 0.354D-01 0.100D+00 0.362D+00
 Coeff:      0.509D+00
 Gap=     0.216 Goal=     0.100 Shift=    0.000
 Gap=     0.216 Goal=     0.100 Shift=    0.000
 RMSDP=1.77D-05 MaxDP=1.32D-03 DE=-1.67D-04 OVMax= 2.15D-03

 Cycle   8  Pass 1  IDiag  1:
 RMSU=  1.26D-05    CP:  9.85D-01  1.55D+00  2.85D-01  9.66D-01  6.33D-01
                    CP:  8.33D-01  6.88D-01
 E= -1650.64106732518     Delta-E=       -0.000029647749 Rises=F Damp=F
 DIIS: error= 4.15D-05 at cycle   8 NSaved=   8.
 NSaved= 8 IEnMin= 8 EnMin= -1650.64106732518     IErMin= 8 ErrMin= 4.15D-05
 ErrMax= 4.15D-05  0.00D+00 EMaxC= 1.00D+00 BMatC= 1.21D-05 BMatP= 1.24D-04
 IDIUse=1 WtCom= 1.00D+00 WtEn= 0.00D+00
 Coeff-Com:  0.211D-02-0.197D-02-0.224D-02-0.135D-01-0.108D-01 0.172D-01
 Coeff-Com:  0.237D+00 0.772D+00
 Coeff:      0.211D-02-0.197D-02-0.224D-02-0.135D-01-0.108D-01 0.172D-01
 Coeff:      0.237D+00 0.772D+00
 Gap=     0.217 Goal=     0.100 Shift=    0.000
 Gap=     0.217 Goal=     0.100 Shift=    0.000
 RMSDP=6.26D-06 MaxDP=3.03D-04 DE=-2.96D-05 OVMax= 7.17D-04

 Cycle   9  Pass 1  IDiag  1:
 RMSU=  2.87D-06    CP:  9.85D-01  1.55D+00  2.84D-01  9.68D-01  6.39D-01
                    CP:  8.53D-01  8.25D-01  8.92D-01
 E= -1650.64107054417     Delta-E=       -0.000003218996 Rises=F Damp=F
 DIIS: error= 1.51D-05 at cycle   9 NSaved=   9.
 NSaved= 9 IEnMin= 9 EnMin= -1650.64107054417     IErMin= 9 ErrMin= 1.51D-05
 ErrMax= 1.51D-05  0.00D+00 EMaxC= 1.00D+00 BMatC= 9.31D-07 BMatP= 1.21D-05
 IDIUse=1 WtCom= 1.00D+00 WtEn= 0.00D+00
 Coeff-Com:  0.103D-02-0.765D-03-0.115D-02-0.881D-02-0.104D-01-0.849D-02
 Coeff-Com:  0.100D+00 0.403D+00 0.526D+00
 Coeff:      0.103D-02-0.765D-03-0.115D-02-0.881D-02-0.104D-01-0.849D-02
 Coeff:      0.100D+00 0.403D+00 0.526D+00
 Gap=     0.217 Goal=     0.100 Shift=    0.000
 Gap=     0.217 Goal=     0.100 Shift=    0.000
 RMSDP=1.72D-06 MaxDP=8.89D-05 DE=-3.22D-06 OVMax= 1.88D-04

 Cycle  10  Pass 1  IDiag  1:
 RMSU=  1.23D-06    CP:  9.85D-01  1.55D+00  2.84D-01  9.68D-01  6.40D-01
                    CP:  8.56D-01  8.32D-01  9.35D-01  6.70D-01
 E= -1650.64107075063     Delta-E=       -0.000000206454 Rises=F Damp=F
 DIIS: error= 6.20D-06 at cycle  10 NSaved=  10.
 NSaved=10 IEnMin=10 EnMin= -1650.64107075063     IErMin=10 ErrMin= 6.20D-06
 ErrMax= 6.20D-06  0.00D+00 EMaxC= 1.00D+00 BMatC= 1.96D-07 BMatP= 9.31D-07
 IDIUse=1 WtCom= 1.00D+00 WtEn= 0.00D+00
 Coeff-Com:  0.774D-04 0.859D-04-0.211D-03-0.231D-02-0.404D-02-0.108D-01
 Coeff-Com:  0.280D-02 0.623D-01 0.313D+00 0.639D+00
 Coeff:      0.774D-04 0.859D-04-0.211D-03-0.231D-02-0.404D-02-0.108D-01
 Coeff:      0.280D-02 0.623D-01 0.313D+00 0.639D+00
 Gap=     0.217 Goal=     0.100 Shift=    0.000
 Gap=     0.217 Goal=     0.100 Shift=    0.000
 RMSDP=8.04D-07 MaxDP=4.63D-05 DE=-2.06D-07 OVMax= 8.13D-05

 Cycle  11  Pass 1  IDiag  1:
 RMSU=  4.21D-07    CP:  9.85D-01  1.55D+00  2.83D-01  9.68D-01  6.40D-01
                    CP:  8.58D-01  8.39D-01  9.50D-01  7.95D-01  7.31D-01
 E= -1650.64107079851     Delta-E=       -0.000000047878 Rises=F Damp=F
 DIIS: error= 1.93D-06 at cycle  11 NSaved=  11.
 NSaved=11 IEnMin=11 EnMin= -1650.64107079851     IErMin=11 ErrMin= 1.93D-06
 ErrMax= 1.93D-06  0.00D+00 EMaxC= 1.00D+00 BMatC= 2.19D-08 BMatP= 1.96D-07
 IDIUse=1 WtCom= 1.00D+00 WtEn= 0.00D+00
 Coeff-Com: -0.512D-04 0.140D-03-0.445D-04-0.676D-03-0.157D-02-0.580D-02
 Coeff-Com: -0.601D-02 0.733D-02 0.137D+00 0.358D+00 0.511D+00
 Coeff:     -0.512D-04 0.140D-03-0.445D-04-0.676D-03-0.157D-02-0.580D-02
 Coeff:     -0.601D-02 0.733D-02 0.137D+00 0.358D+00 0.511D+00
 Gap=     0.217 Goal=     0.100 Shift=    0.000
 Gap=     0.217 Goal=     0.100 Shift=    0.000
 RMSDP=2.42D-07 MaxDP=1.05D-05 DE=-4.79D-08 OVMax= 2.72D-05

 Cycle  12  Pass 1  IDiag  1:
 RMSU=  1.91D-07    CP:  9.85D-01  1.55D+00  2.83D-01  9.68D-01  6.40D-01
                    CP:  8.58D-01  8.40D-01  9.53D-01  8.09D-01  8.00D-01
                    CP:  8.19D-01
 E= -1650.64107080384     Delta-E=       -0.000000005330 Rises=F Damp=F
 DIIS: error= 7.66D-07 at cycle  12 NSaved=  12.
 NSaved=12 IEnMin=12 EnMin= -1650.64107080384     IErMin=12 ErrMin= 7.66D-07
 ErrMax= 7.66D-07  0.00D+00 EMaxC= 1.00D+00 BMatC= 2.31D-09 BMatP= 2.19D-08
 IDIUse=1 WtCom= 1.00D+00 WtEn= 0.00D+00
 Coeff-Com: -0.446D-04 0.592D-04 0.192D-04 0.839D-04-0.292D-04-0.105D-02
 Coeff-Com: -0.397D-02-0.751D-02 0.123D-01 0.671D-01 0.280D+00 0.653D+00
 Coeff:     -0.446D-04 0.592D-04 0.192D-04 0.839D-04-0.292D-04-0.105D-02
 Coeff:     -0.397D-02-0.751D-02 0.123D-01 0.671D-01 0.280D+00 0.653D+00
 Gap=     0.217 Goal=     0.100 Shift=    0.000
 Gap=     0.217 Goal=     0.100 Shift=    0.000
 RMSDP=1.16D-07 MaxDP=7.59D-06 DE=-5.33D-09 OVMax= 1.97D-05

 Cycle  13  Pass 1  IDiag  1:
 RMSU=  7.33D-08    CP:  9.85D-01  1.55D+00  2.83D-01  9.68D-01  6.40D-01
                    CP:  8.58D-01  8.40D-01  9.54D-01  8.16D-01  8.32D-01
                    CP:  9.96D-01  9.86D-01
 E= -1650.64107080480     Delta-E=       -0.000000000969 Rises=F Damp=F
 DIIS: error= 5.65D-07 at cycle  13 NSaved=  13.
 NSaved=13 IEnMin=13 EnMin= -1650.64107080480     IErMin=13 ErrMin= 5.65D-07
 ErrMax= 5.65D-07  0.00D+00 EMaxC= 1.00D+00 BMatC= 8.75D-10 BMatP= 2.31D-09
 IDIUse=1 WtCom= 1.00D+00 WtEn= 0.00D+00
 Coeff-Com:  0.284D-05-0.224D-04 0.197D-04 0.141D-03 0.313D-03 0.802D-03
 Coeff-Com: -0.197D-03-0.330D-02-0.210D-01-0.468D-01 0.314D-02 0.250D+00
 Coeff-Com:  0.817D+00
 Coeff:      0.284D-05-0.224D-04 0.197D-04 0.141D-03 0.313D-03 0.802D-03
 Coeff:     -0.197D-03-0.330D-02-0.210D-01-0.468D-01 0.314D-02 0.250D+00
 Coeff:      0.817D+00
 Gap=     0.217 Goal=     0.100 Shift=    0.000
 Gap=     0.217 Goal=     0.100 Shift=    0.000
 RMSDP=7.28D-08 MaxDP=5.03D-06 DE=-9.69D-10 OVMax= 1.22D-05

 Cycle  14  Pass 1  IDiag  1:
 RMSU=  2.96D-08    CP:  9.85D-01  1.55D+00  2.83D-01  9.68D-01  6.40D-01
                    CP:  8.58D-01  8.40D-01  9.55D-01  8.21D-01  8.46D-01
                    CP:  1.10D+00  1.21D+00  1.10D+00
 E= -1650.64107080513     Delta-E=       -0.000000000328 Rises=F Damp=F
 DIIS: error= 1.48D-07 at cycle  14 NSaved=  14.
 NSaved=14 IEnMin=14 EnMin= -1650.64107080513     IErMin=14 ErrMin= 1.48D-07
 ErrMax= 1.48D-07  0.00D+00 EMaxC= 1.00D+00 BMatC= 9.54D-11 BMatP= 8.75D-10
 IDIUse=1 WtCom= 1.00D+00 WtEn= 0.00D+00
 Coeff-Com:  0.906D-05-0.217D-04 0.824D-05 0.561D-04 0.167D-03 0.590D-03
 Coeff-Com:  0.521D-03-0.459D-03-0.129D-01-0.357D-01-0.490D-01 0.808D-02
 Coeff-Com:  0.389D+00 0.700D+00
 Coeff:      0.906D-05-0.217D-04 0.824D-05 0.561D-04 0.167D-03 0.590D-03
 Coeff:      0.521D-03-0.459D-03-0.129D-01-0.357D-01-0.490D-01 0.808D-02
 Coeff:      0.389D+00 0.700D+00
 Gap=     0.217 Goal=     0.100 Shift=    0.000
 Gap=     0.217 Goal=     0.100 Shift=    0.000
 RMSDP=3.51D-08 MaxDP=2.25D-06 DE=-3.28D-10 OVMax= 5.88D-06

 Cycle  15  Pass 1  IDiag  1:
 RMSU=  1.52D-08    CP:  9.85D-01  1.55D+00  2.83D-01  9.68D-01  6.40D-01
                    CP:  8.58D-01  8.40D-01  9.55D-01  8.24D-01  8.54D-01
                    CP:  1.14D+00  1.29D+00  1.33D+00  8.46D-01
 E= -1650.64107080519     Delta-E=       -0.000000000062 Rises=F Damp=F
 DIIS: error= 9.65D-08 at cycle  15 NSaved=  15.
 NSaved=15 IEnMin=15 EnMin= -1650.64107080519     IErMin=15 ErrMin= 9.65D-08
 ErrMax= 9.65D-08  0.00D+00 EMaxC= 1.00D+00 BMatC= 4.09D-11 BMatP= 9.54D-11
 IDIUse=1 WtCom= 1.00D+00 WtEn= 0.00D+00
 Coeff-Com:  0.546D-05-0.791D-05-0.230D-06-0.742D-05 0.145D-04 0.150D-03
 Coeff-Com:  0.388D-03 0.685D-03-0.198D-02-0.930D-02-0.388D-01-0.825D-01
 Coeff-Com:  0.122D-01 0.503D+00 0.616D+00
 Coeff:      0.546D-05-0.791D-05-0.230D-06-0.742D-05 0.145D-04 0.150D-03
 Coeff:      0.388D-03 0.685D-03-0.198D-02-0.930D-02-0.388D-01-0.825D-01
 Coeff:      0.122D-01 0.503D+00 0.616D+00
 Gap=     0.217 Goal=     0.100 Shift=    0.000
 Gap=     0.217 Goal=     0.100 Shift=    0.000
 RMSDP=1.86D-08 MaxDP=1.31D-06 DE=-6.23D-11 OVMax= 3.24D-06

 Cycle  16  Pass 1  IDiag  1:
 RMSU=  5.27D-09    CP:  9.85D-01  1.55D+00  2.83D-01  9.68D-01  6.40D-01
                    CP:  8.58D-01  8.41D-01  9.55D-01  8.25D-01  8.58D-01
                    CP:  1.16D+00  1.34D+00  1.41D+00  1.11D+00  7.04D-01
 E= -1650.64107080520     Delta-E=       -0.000000000003 Rises=F Damp=F
 DIIS: error= 1.98D-08 at cycle  16 NSaved=  16.
 NSaved=16 IEnMin=16 EnMin= -1650.64107080520     IErMin=16 ErrMin= 1.98D-08
 ErrMax= 1.98D-08  0.00D+00 EMaxC= 1.00D+00 BMatC= 1.43D-12 BMatP= 4.09D-11
 IDIUse=1 WtCom= 1.00D+00 WtEn= 0.00D+00
 Coeff-Com:  0.200D-05-0.242D-05-0.628D-06-0.582D-05-0.243D-05 0.387D-04
 Coeff-Com:  0.150D-03 0.336D-03-0.205D-03-0.212D-02-0.141D-01-0.364D-01
 Coeff-Com: -0.191D-01 0.174D+00 0.276D+00 0.622D+00
 Coeff:      0.200D-05-0.242D-05-0.628D-06-0.582D-05-0.243D-05 0.387D-04
 Coeff:      0.150D-03 0.336D-03-0.205D-03-0.212D-02-0.141D-01-0.364D-01
 Coeff:     -0.191D-01 0.174D+00 0.276D+00 0.622D+00
 Gap=     0.217 Goal=     0.100 Shift=    0.000
 Gap=     0.217 Goal=     0.100 Shift=    0.000
 RMSDP=2.95D-09 MaxDP=1.69D-07 DE=-2.73D-12 OVMax= 3.77D-07

 SCF Done:  E(UB3LYP) =  -1650.64107081     A.U. after   16 cycles
            NFock= 16  Conv=0.30D-08     -V/T= 2.0035
 <Sx>= 0.0000 <Sy>= 0.0000 <Sz>= 0.0000 <S**2>=-0.0000 S=-0.0000
 <L.S>=  0.00000000000    
 KE= 1.644878018727D+03 PE=-5.787864032541D+03 EE= 1.549590037497D+03
 Annihilation of the first spin contaminant:
 S**2 before annihilation    -0.0000,   after     0.0000
 Leave Link  502 at Fri Jan 31 16:25:06 2025, MaxMem= 13421772800 cpu:            3397.4 elap:              30.4
 (Enter /gpfs/fs1/soft/improv/software/custom-built/gaussian/g16/l508.exe)
 QCSCF skips out because SCF is already converged.
 Leave Link  508 at Fri Jan 31 16:25:07 2025, MaxMem= 13421772800 cpu:               0.2 elap:               0.0
 (Enter /gpfs/fs1/soft/improv/software/custom-built/gaussian/g16/l801.exe)
 DoSCS=F DFT=T ScalE2(SS,OS)=  1.000000  1.000000
 Range of M.O.s used for correlation:     1   382
 NBasis=   382 NAE=    48 NBE=    48 NFC=     0 NFV=     0
 NROrb=    382 NOA=    48 NOB=    48 NVA=   334 NVB=   334

 **** Warning!!: The largest alpha MO coefficient is  0.18627391D+02


 **** Warning!!: The largest beta MO coefficient is  0.18627391D+02

 Leave Link  801 at Fri Jan 31 16:25:07 2025, MaxMem= 13421772800 cpu:               0.4 elap:               0.0
 (Enter /gpfs/fs1/soft/improv/software/custom-built/gaussian/g16/l1101.exe)
 Using compressed storage, NAtomX=    21.
 Will process     22 centers per pass.
 R6Disp: Adding Grimme-D3 dispersion energy 1st derivatives to the gradient.
 Leave Link 1101 at Fri Jan 31 16:25:08 2025, MaxMem= 13421772800 cpu:              64.1 elap:               0.7
 (Enter /gpfs/fs1/soft/improv/software/custom-built/gaussian/g16/l1102.exe)
 Symmetrizing basis deriv contribution to polar:
 IMax=3 JMax=2 DiffMx= 0.00D+00
 Leave Link 1102 at Fri Jan 31 16:25:08 2025, MaxMem= 13421772800 cpu:               1.0 elap:               0.1
 (Enter /gpfs/fs1/soft/improv/software/custom-built/gaussian/g16/l1110.exe)
 Forming Gx(P) for the SCF density, NAtomX=    21.
 Integral derivatives from FoFJK, PRISM(SPDF).
 Do as many integral derivatives as possible in FoFJK.
 G2DrvN: MDV=   13421770249.
 G2DrvN: will do    22 centers at a time, making    1 passes.
 Calling FoFCou, ICntrl=  3107 FMM=F I1Cent=   0 AccDes= 0.00D+00.
 FoFJK:  IHMeth= 1 ICntrl=    3107 DoSepK=F KAlg= 0 I1Cent=           0 FoldK=F
 IRaf=         0 NMat=       1 IRICut=       1 DoRegI=T DoRafI=F ISym2E= 0 IDoP0=0 IntGTp=1.
 FoFCou: FMM=F IPFlag=           0 FMFlag=      100000 FMFlg1=           0
         NFxFlg=           0 DoJE=F BraDBF=F KetDBF=F FulRan=T
         wScrn=  0.000000 ICntrl=      3107 IOpCl=  1 I1Cent=           0 NGrid=           0
         NMat0=    1 NMatS0=      1 NMatT0=    0 NMatD0=    1 NMtDS0=    0 NMtDT0=    0
 Symmetry not used in FoFCou.
 End of G2Drv F.D. properties file   721 does not exist.
 End of G2Drv F.D. properties file   722 does not exist.
 End of G2Drv F.D. properties file   788 does not exist.
 Leave Link 1110 at Fri Jan 31 16:25:35 2025, MaxMem= 13421772800 cpu:            3375.3 elap:              26.8
 (Enter /gpfs/fs1/soft/improv/software/custom-built/gaussian/g16/l1002.exe)
 Minotr:  UHF open shell wavefunction.
          IDoAtm=111111111111111111111
          Direct CPHF calculation.
          Differentiating once with respect to nuclear coordinates.
          Requested convergence is 1.0D-08 RMS, and 1.0D-07 maximum.
          Secondary convergence is 1.0D-12 RMS, and 1.0D-12 maximum.
          NewPWx=T KeepS1=F KeepF1=F KeepIn=T MapXYZ=F SortEE=F KeepMc=T.
         6378 words used for storage of precomputed grid.
 Two-electron integrals replicated using symmetry.
          MDV=   13421772800 using IRadAn=       1.
          Solving linear equations simultaneously, MaxMat=     384.
 FoF2E skips out because all densities are zero.
 CalDSu exits because no D1Ps are significant.
 FoFJK:  IHMeth= 1 ICntrl=       0 DoSepK=F KAlg= 0 I1Cent=           0 FoldK=F
 IRaf= 980000000 NMat=      63 IRICut=     157 DoRegI=T DoRafI=T ISym2E= 2 IDoP0=3 IntGTp=2.
 FoFCou: FMM=F IPFlag=           0 FMFlag=      100000 FMFlg1=           0
         NFxFlg=           0 DoJE=F BraDBF=F KetDBF=F FulRan=T
         wScrn=  0.000000 ICntrl=         0 IOpCl=  1 I1Cent=           0 NGrid=           0
         NMat0=   63 NMatS0=     63 NMatT0=    0 NMatD0=   63 NMtDS0=    0 NMtDT0=    0
 Integrals replicated using symmetry in FoFCou.
 Raff kept on since  96.51% of shell-pairs survive, threshold=   0.20 IRatSp=97.
          There are    66 degrees of freedom in the 1st order CPHF.  IDoFFX=6 NUNeed=     0.
     60 vectors produced by pass  0 Test12= 4.86D-14 1.52D-09 XBig12= 1.72D-01 6.44D-02.
 AX will form    60 AO Fock derivatives at one time.
     60 vectors produced by pass  1 Test12= 4.86D-14 1.52D-09 XBig12= 2.37D-01 1.21D-01.
     60 vectors produced by pass  2 Test12= 4.86D-14 1.52D-09 XBig12= 6.09D-03 1.06D-02.
     60 vectors produced by pass  3 Test12= 4.86D-14 1.52D-09 XBig12= 3.36D-05 5.78D-04.
     60 vectors produced by pass  4 Test12= 4.86D-14 1.52D-09 XBig12= 1.15D-07 2.36D-05.
     60 vectors produced by pass  5 Test12= 4.86D-14 1.52D-09 XBig12= 1.99D-10 1.39D-06.
     29 vectors produced by pass  6 Test12= 4.86D-14 1.52D-09 XBig12= 2.80D-13 4.79D-08.
 InvSVY:  IOpt=1 It=  1 EMax= 5.55D-16
 Solved reduced A of dimension   389 with    66 vectors.
 End of Minotr F.D. properties file   721 does not exist.
 End of Minotr F.D. properties file   722 does not exist.
 End of Minotr F.D. properties file   788 does not exist.
 Leave Link 1002 at Fri Jan 31 16:26:55 2025, MaxMem= 13421772800 cpu:            9570.1 elap:              79.0
 (Enter /gpfs/fs1/soft/improv/software/custom-built/gaussian/g16/l601.exe)
 Copying SCF densities to generalized density rwf, IOpCl= 1 IROHF=0.

 **********************************************************************

            Population analysis using the SCF Density.

 **********************************************************************

 Orbital symmetries:
 Alpha Orbitals:
       Occupied  (A) (A) (A) (A) (A) (A) (A) (A) (A) (A) (A) (A)
                 (A) (A) (A) (A) (A) (A) (A) (A) (A) (A) (A) (A)
                 (A) (A) (A) (A) (A) (A) (A) (A) (A) (A) (A) (A)
                 (A) (A) (A) (A) (A) (A) (A) (A) (A) (A) (A) (A)
       Virtual   (A) (A) (A) (A) (A) (A) (A) (A) (A) (A) (A) (A)
                 (A) (A) (A) (A) (A) (A) (A) (A) (A) (A) (A) (A)
                 (A) (A) (A) (A) (A) (A) (A) (A) (A) (A) (A) (A)
                 (A) (A) (A) (A) (A) (A) (A) (A) (A) (A) (A) (A)
                 (A) (A) (A) (A) (A) (A) (A) (A) (A) (A) (A) (A)
                 (A) (A) (A) (A) (A) (A) (A) (A) (A) (A) (A) (A)
                 (A) (A) (A) (A) (A) (A) (A) (A) (A) (A) (A) (A)
                 (A) (A) (A) (A) (A) (A) (A) (A) (A) (A) (A) (A)
                 (A) (A) (A) (A) (A) (A) (A) (A) (A) (A) (A) (A)
                 (A) (A) (A) (A) (A) (A) (A) (A) (A) (A) (A) (A)
                 (A) (A) (A) (A) (A) (A) (A) (A) (A) (A) (A) (A)
                 (A) (A) (A) (A) (A) (A) (A) (A) (A) (A) (A) (A)
                 (A) (A) (A) (A) (A) (A) (A) (A) (A) (A) (A) (A)
                 (A) (A) (A) (A) (A) (A) (A) (A) (A) (A) (A) (A)
                 (A) (A) (A) (A) (A) (A) (A) (A) (A) (A) (A) (A)
                 (A) (A) (A) (A) (A) (A) (A) (A) (A) (A) (A) (A)
                 (A) (A) (A) (A) (A) (A) (A) (A) (A) (A) (A) (A)
                 (A) (A) (A) (A) (A) (A) (A) (A) (A) (A) (A) (A)
                 (A) (A) (A) (A) (A) (A) (A) (A) (A) (A) (A) (A)
                 (A) (A) (A) (A) (A) (A) (A) (A) (A) (A) (A) (A)
                 (A) (A) (A) (A) (A) (A) (A) (A) (A) (A) (A) (A)
                 (A) (A) (A) (A) (A) (A) (A) (A) (A) (A) (A) (A)
                 (A) (A) (A) (A) (A) (A) (A) (A) (A) (A) (A) (A)
                 (A) (A) (A) (A) (A) (A) (A) (A) (A) (A) (A) (A)
                 (A) (A) (A) (A) (A) (A) (A) (A) (A) (A) (A) (A)
                 (A) (A) (A) (A) (A) (A) (A) (A) (A) (A) (A) (A)
                 (A) (A) (A) (A) (A) (A) (A) (A) (A) (A) (A) (A)
                 (A) (A) (A) (A) (A) (A) (A) (A) (A) (A)
 Beta  Orbitals:
       Occupied  (A) (A) (A) (A) (A) (A) (A) (A) (A) (A) (A) (A)
                 (A) (A) (A) (A) (A) (A) (A) (A) (A) (A) (A) (A)
                 (A) (A) (A) (A) (A) (A) (A) (A) (A) (A) (A) (A)
                 (A) (A) (A) (A) (A) (A) (A) (A) (A) (A) (A) (A)
       Virtual   (A) (A) (A) (A) (A) (A) (A) (A) (A) (A) (A) (A)
                 (A) (A) (A) (A) (A) (A) (A) (A) (A) (A) (A) (A)
                 (A) (A) (A) (A) (A) (A) (A) (A) (A) (A) (A) (A)
                 (A) (A) (A) (A) (A) (A) (A) (A) (A) (A) (A) (A)
                 (A) (A) (A) (A) (A) (A) (A) (A) (A) (A) (A) (A)
                 (A) (A) (A) (A) (A) (A) (A) (A) (A) (A) (A) (A)
                 (A) (A) (A) (A) (A) (A) (A) (A) (A) (A) (A) (A)
                 (A) (A) (A) (A) (A) (A) (A) (A) (A) (A) (A) (A)
                 (A) (A) (A) (A) (A) (A) (A) (A) (A) (A) (A) (A)
                 (A) (A) (A) (A) (A) (A) (A) (A) (A) (A) (A) (A)
                 (A) (A) (A) (A) (A) (A) (A) (A) (A) (A) (A) (A)
                 (A) (A) (A) (A) (A) (A) (A) (A) (A) (A) (A) (A)
                 (A) (A) (A) (A) (A) (A) (A) (A) (A) (A) (A) (A)
                 (A) (A) (A) (A) (A) (A) (A) (A) (A) (A) (A) (A)
                 (A) (A) (A) (A) (A) (A) (A) (A) (A) (A) (A) (A)
                 (A) (A) (A) (A) (A) (A) (A) (A) (A) (A) (A) (A)
                 (A) (A) (A) (A) (A) (A) (A) (A) (A) (A) (A) (A)
                 (A) (A) (A) (A) (A) (A) (A) (A) (A) (A) (A) (A)
                 (A) (A) (A) (A) (A) (A) (A) (A) (A) (A) (A) (A)
                 (A) (A) (A) (A) (A) (A) (A) (A) (A) (A) (A) (A)
                 (A) (A) (A) (A) (A) (A) (A) (A) (A) (A) (A) (A)
                 (A) (A) (A) (A) (A) (A) (A) (A) (A) (A) (A) (A)
                 (A) (A) (A) (A) (A) (A) (A) (A) (A) (A) (A) (A)
                 (A) (A) (A) (A) (A) (A) (A) (A) (A) (A) (A) (A)
                 (A) (A) (A) (A) (A) (A) (A) (A) (A) (A) (A) (A)
                 (A) (A) (A) (A) (A) (A) (A) (A) (A) (A) (A) (A)
                 (A) (A) (A) (A) (A) (A) (A) (A) (A) (A) (A) (A)
                 (A) (A) (A) (A) (A) (A) (A) (A) (A) (A)
 The electronic state is 1-A.
 Alpha  occ. eigenvalues -- -256.06349 -30.03555 -25.90539 -25.89589 -25.89396
 Alpha  occ. eigenvalues --  -10.20839 -10.20816 -10.20742 -10.20348 -10.20330
 Alpha  occ. eigenvalues --  -10.20329 -10.20236 -10.20053 -10.20030 -10.19980
 Alpha  occ. eigenvalues --   -3.42550  -2.21839  -2.18981  -2.18608  -0.87093
 Alpha  occ. eigenvalues --   -0.84245  -0.72495  -0.71818  -0.70368  -0.69688
 Alpha  occ. eigenvalues --   -0.56086  -0.55920  -0.54299  -0.53575  -0.53566
 Alpha  occ. eigenvalues --   -0.50700  -0.42392  -0.41982  -0.40553  -0.40064
 Alpha  occ. eigenvalues --   -0.38357  -0.37680  -0.37305  -0.36298  -0.36165
 Alpha  occ. eigenvalues --   -0.32550  -0.28586  -0.27333  -0.26616  -0.24978
 Alpha  occ. eigenvalues --   -0.22803  -0.22157  -0.21571
 Alpha virt. eigenvalues --    0.00092   0.00527   0.02291   0.02661   0.03663
 Alpha virt. eigenvalues --    0.04067   0.04318   0.04998   0.05574   0.08462
 Alpha virt. eigenvalues --    0.14143   0.14268   0.16390   0.17087   0.18011
 Alpha virt. eigenvalues --    0.19109   0.19351   0.20011   0.20945   0.21451
 Alpha virt. eigenvalues --    0.21969   0.22843   0.26924   0.28441   0.29231
 Alpha virt. eigenvalues --    0.29932   0.31379   0.33692   0.36831   0.37520
 Alpha virt. eigenvalues --    0.39017   0.44056   0.44352   0.45778   0.46526
 Alpha virt. eigenvalues --    0.47937   0.48340   0.49848   0.50526   0.51519
 Alpha virt. eigenvalues --    0.51989   0.53100   0.53402   0.55427   0.57164
 Alpha virt. eigenvalues --    0.57781   0.59459   0.61866   0.64670   0.65557
 Alpha virt. eigenvalues --    0.66197   0.67400   0.68109   0.68688   0.70903
 Alpha virt. eigenvalues --    0.71130   0.71916   0.73177   0.74748   0.75797
 Alpha virt. eigenvalues --    0.76247   0.76389   0.77131   0.78104   0.78409
 Alpha virt. eigenvalues --    0.78846   0.80597   0.80941   0.81893   0.83023
 Alpha virt. eigenvalues --    0.84068   0.85020   0.86177   0.86595   0.87458
 Alpha virt. eigenvalues --    0.95279   0.96586   0.99746   1.00607   1.01554
 Alpha virt. eigenvalues --    1.07186   1.07981   1.10098   1.10797   1.11814
 Alpha virt. eigenvalues --    1.12957   1.14269   1.17118   1.18598   1.20242
 Alpha virt. eigenvalues --    1.22926   1.25504   1.27629   1.28712   1.30549
 Alpha virt. eigenvalues --    1.33675   1.34170   1.36127   1.38218   1.39589
 Alpha virt. eigenvalues --    1.42069   1.44556   1.45905   1.47297   1.50775
 Alpha virt. eigenvalues --    1.51839   1.52215   1.54490   1.55415   1.56084
 Alpha virt. eigenvalues --    1.56698   1.57018   1.58207   1.59078   1.59856
 Alpha virt. eigenvalues --    1.62136   1.63277   1.64862   1.67668   1.68945
 Alpha virt. eigenvalues --    1.70126   1.72245   1.74434   1.76210   1.77557
 Alpha virt. eigenvalues --    1.78810   1.81210   1.84047   1.88167   1.89565
 Alpha virt. eigenvalues --    1.91976   1.93580   1.94644   1.96338   1.98533
 Alpha virt. eigenvalues --    2.01596   2.04502   2.05452   2.08521   2.09144
 Alpha virt. eigenvalues --    2.18130   2.22424   2.25676   2.26447   2.29334
 Alpha virt. eigenvalues --    2.33357   2.34018   2.36364   2.38332   2.39918
 Alpha virt. eigenvalues --    2.42356   2.46125   2.47979   2.50044   2.51181
 Alpha virt. eigenvalues --    2.52859   2.56234   2.56494   2.61390   2.65131
 Alpha virt. eigenvalues --    2.66717   2.67854   2.68029   2.69232   2.71972
 Alpha virt. eigenvalues --    2.74033   2.75105   2.76839   2.80259   2.82755
 Alpha virt. eigenvalues --    2.83591   2.86512   2.90925   2.93822   2.94482
 Alpha virt. eigenvalues --    2.95318   2.96551   2.97528   2.99640   3.00060
 Alpha virt. eigenvalues --    3.02677   3.03440   3.04389   3.05307   3.05817
 Alpha virt. eigenvalues --    3.07735   3.09132   3.11311   3.12490   3.13583
 Alpha virt. eigenvalues --    3.16431   3.16924   3.17816   3.19899   3.22129
 Alpha virt. eigenvalues --    3.22952   3.24340   3.27197   3.30791   3.31852
 Alpha virt. eigenvalues --    3.32640   3.33796   3.34883   3.37946   3.38557
 Alpha virt. eigenvalues --    3.40155   3.42133   3.42593   3.44917   3.47039
 Alpha virt. eigenvalues --    3.47454   3.48018   3.51263   3.53566   3.54708
 Alpha virt. eigenvalues --    3.58923   3.61166   3.63174   3.65577   3.68392
 Alpha virt. eigenvalues --    3.72473   3.74895   3.76208   3.78288   3.79366
 Alpha virt. eigenvalues --    3.83170   3.86235   3.87191   3.89089   3.92363
 Alpha virt. eigenvalues --    3.98336   4.01871   4.04559   4.05438   4.08713
 Alpha virt. eigenvalues --    4.11986   4.13932   4.16794   4.18450   4.19494
 Alpha virt. eigenvalues --    4.19672   4.21267   4.26005   4.27959   4.31144
 Alpha virt. eigenvalues --    4.34345   4.36786   4.38373   4.39892   4.43232
 Alpha virt. eigenvalues --    4.44383   4.45611   4.46541   4.48174   4.49169
 Alpha virt. eigenvalues --    4.50851   4.51115   4.52188   4.52709   4.54845
 Alpha virt. eigenvalues --    4.57622   4.57963   4.59594   4.60926   4.62504
 Alpha virt. eigenvalues --    4.64621   4.66348   4.67674   4.70113   4.70459
 Alpha virt. eigenvalues --    4.72108   4.73034   4.73505   4.74781   4.79460
 Alpha virt. eigenvalues --    4.80141   4.81841   4.83732   4.84574   4.86420
 Alpha virt. eigenvalues --    4.87926   4.89333   4.90804   4.92903   4.95978
 Alpha virt. eigenvalues --    4.97045   4.98583   5.00037   5.01699   5.03736
 Alpha virt. eigenvalues --    5.05989   5.07960   5.09407   5.12790   5.13519
 Alpha virt. eigenvalues --    5.14021   5.17521   5.18296   5.21239   5.24993
 Alpha virt. eigenvalues --    5.26279   5.28153   5.33444   5.39032   5.43210
 Alpha virt. eigenvalues --    5.47854   5.49450   5.51276   5.52909   5.56471
 Alpha virt. eigenvalues --    5.58151   5.62811   5.64413   5.66316   5.73442
 Alpha virt. eigenvalues --    5.78021   5.80451   5.86815   6.00858   6.08772
 Alpha virt. eigenvalues --    6.14175   6.75066   6.95097  11.06087  11.16779
 Alpha virt. eigenvalues --   11.19394  11.22008  11.52500  11.60697  12.00133
 Alpha virt. eigenvalues --   12.03825  12.63858  12.67771  22.21625
  Beta  occ. eigenvalues -- -256.06349 -30.03555 -25.90539 -25.89589 -25.89396
  Beta  occ. eigenvalues --  -10.20839 -10.20816 -10.20742 -10.20348 -10.20330
  Beta  occ. eigenvalues --  -10.20329 -10.20236 -10.20053 -10.20030 -10.19980
  Beta  occ. eigenvalues --   -3.42550  -2.21839  -2.18981  -2.18608  -0.87093
  Beta  occ. eigenvalues --   -0.84245  -0.72495  -0.71818  -0.70368  -0.69688
  Beta  occ. eigenvalues --   -0.56086  -0.55920  -0.54299  -0.53575  -0.53566
  Beta  occ. eigenvalues --   -0.50700  -0.42392  -0.41982  -0.40553  -0.40064
  Beta  occ. eigenvalues --   -0.38357  -0.37680  -0.37305  -0.36298  -0.36165
  Beta  occ. eigenvalues --   -0.32550  -0.28586  -0.27333  -0.26616  -0.24978
  Beta  occ. eigenvalues --   -0.22803  -0.22157  -0.21571
  Beta virt. eigenvalues --    0.00092   0.00527   0.02291   0.02661   0.03663
  Beta virt. eigenvalues --    0.04067   0.04318   0.04998   0.05574   0.08462
  Beta virt. eigenvalues --    0.14143   0.14268   0.16390   0.17087   0.18011
  Beta virt. eigenvalues --    0.19109   0.19351   0.20011   0.20945   0.21451
  Beta virt. eigenvalues --    0.21969   0.22843   0.26924   0.28441   0.29231
  Beta virt. eigenvalues --    0.29932   0.31379   0.33692   0.36831   0.37520
  Beta virt. eigenvalues --    0.39017   0.44056   0.44352   0.45778   0.46526
  Beta virt. eigenvalues --    0.47937   0.48340   0.49848   0.50526   0.51519
  Beta virt. eigenvalues --    0.51989   0.53100   0.53402   0.55427   0.57164
  Beta virt. eigenvalues --    0.57781   0.59459   0.61866   0.64670   0.65557
  Beta virt. eigenvalues --    0.66197   0.67400   0.68109   0.68688   0.70903
  Beta virt. eigenvalues --    0.71130   0.71916   0.73177   0.74748   0.75797
  Beta virt. eigenvalues --    0.76247   0.76389   0.77131   0.78104   0.78409
  Beta virt. eigenvalues --    0.78846   0.80597   0.80941   0.81893   0.83023
  Beta virt. eigenvalues --    0.84068   0.85020   0.86177   0.86595   0.87458
  Beta virt. eigenvalues --    0.95279   0.96586   0.99746   1.00607   1.01554
  Beta virt. eigenvalues --    1.07186   1.07981   1.10098   1.10797   1.11814
  Beta virt. eigenvalues --    1.12957   1.14269   1.17118   1.18598   1.20242
  Beta virt. eigenvalues --    1.22926   1.25504   1.27629   1.28712   1.30549
  Beta virt. eigenvalues --    1.33675   1.34170   1.36127   1.38218   1.39589
  Beta virt. eigenvalues --    1.42069   1.44556   1.45905   1.47297   1.50775
  Beta virt. eigenvalues --    1.51839   1.52215   1.54490   1.55415   1.56084
  Beta virt. eigenvalues --    1.56698   1.57018   1.58207   1.59078   1.59856
  Beta virt. eigenvalues --    1.62136   1.63277   1.64862   1.67668   1.68945
  Beta virt. eigenvalues --    1.70126   1.72245   1.74434   1.76210   1.77557
  Beta virt. eigenvalues --    1.78810   1.81210   1.84047   1.88167   1.89565
  Beta virt. eigenvalues --    1.91976   1.93580   1.94644   1.96338   1.98533
  Beta virt. eigenvalues --    2.01596   2.04502   2.05452   2.08521   2.09144
  Beta virt. eigenvalues --    2.18130   2.22424   2.25676   2.26447   2.29334
  Beta virt. eigenvalues --    2.33357   2.34018   2.36364   2.38332   2.39918
  Beta virt. eigenvalues --    2.42356   2.46125   2.47979   2.50044   2.51181
  Beta virt. eigenvalues --    2.52859   2.56234   2.56494   2.61390   2.65131
  Beta virt. eigenvalues --    2.66717   2.67854   2.68029   2.69232   2.71972
  Beta virt. eigenvalues --    2.74033   2.75105   2.76839   2.80259   2.82755
  Beta virt. eigenvalues --    2.83591   2.86512   2.90925   2.93822   2.94482
  Beta virt. eigenvalues --    2.95318   2.96551   2.97528   2.99640   3.00060
  Beta virt. eigenvalues --    3.02677   3.03440   3.04389   3.05307   3.05817
  Beta virt. eigenvalues --    3.07735   3.09132   3.11311   3.12490   3.13583
  Beta virt. eigenvalues --    3.16431   3.16924   3.17816   3.19899   3.22129
  Beta virt. eigenvalues --    3.22952   3.24340   3.27197   3.30791   3.31852
  Beta virt. eigenvalues --    3.32640   3.33796   3.34883   3.37946   3.38557
  Beta virt. eigenvalues --    3.40155   3.42133   3.42593   3.44917   3.47039
  Beta virt. eigenvalues --    3.47454   3.48018   3.51263   3.53566   3.54708
  Beta virt. eigenvalues --    3.58923   3.61166   3.63174   3.65577   3.68392
  Beta virt. eigenvalues --    3.72473   3.74895   3.76208   3.78288   3.79366
  Beta virt. eigenvalues --    3.83170   3.86235   3.87191   3.89089   3.92363
  Beta virt. eigenvalues --    3.98336   4.01871   4.04559   4.05438   4.08713
  Beta virt. eigenvalues --    4.11986   4.13932   4.16794   4.18450   4.19494
  Beta virt. eigenvalues --    4.19672   4.21267   4.26005   4.27959   4.31144
  Beta virt. eigenvalues --    4.34345   4.36786   4.38373   4.39892   4.43232
  Beta virt. eigenvalues --    4.44383   4.45611   4.46541   4.48174   4.49169
  Beta virt. eigenvalues --    4.50851   4.51115   4.52188   4.52709   4.54845
  Beta virt. eigenvalues --    4.57622   4.57963   4.59594   4.60926   4.62504
  Beta virt. eigenvalues --    4.64621   4.66348   4.67674   4.70113   4.70459
  Beta virt. eigenvalues --    4.72108   4.73034   4.73505   4.74781   4.79460
  Beta virt. eigenvalues --    4.80141   4.81841   4.83732   4.84574   4.86420
  Beta virt. eigenvalues --    4.87926   4.89333   4.90804   4.92903   4.95978
  Beta virt. eigenvalues --    4.97045   4.98583   5.00037   5.01699   5.03736
  Beta virt. eigenvalues --    5.05989   5.07960   5.09407   5.12790   5.13519
  Beta virt. eigenvalues --    5.14021   5.17521   5.18296   5.21239   5.24993
  Beta virt. eigenvalues --    5.26279   5.28153   5.33444   5.39032   5.43210
  Beta virt. eigenvalues --    5.47854   5.49450   5.51276   5.52909   5.56471
  Beta virt. eigenvalues --    5.58151   5.62811   5.64413   5.66316   5.73442
  Beta virt. eigenvalues --    5.78021   5.80451   5.86815   6.00858   6.08772
  Beta virt. eigenvalues --    6.14175   6.75066   6.95097  11.06087  11.16779
  Beta virt. eigenvalues --   11.19394  11.22008  11.52500  11.60697  12.00133
  Beta virt. eigenvalues --   12.03825  12.63858  12.67771  22.21625
          Condensed to atoms (all electrons):
               1          2          3          4          5          6
     1  C    5.139478   0.388832   0.354384  -0.039773  -0.023156   0.004886
     2  H    0.388832   0.585738  -0.037168  -0.000071   0.003244  -0.000014
     3  C    0.354384  -0.037168   5.035236   0.374687   0.424836  -0.044456
     4  H   -0.039773  -0.000071   0.374687   0.565935  -0.040807  -0.003033
     5  C   -0.023156   0.003244   0.424836  -0.040807   5.033289   0.376144
     6  H    0.004886  -0.000014  -0.044456  -0.003033   0.376144   0.566862
     7  C    0.364612  -0.037937  -0.016865   0.002258  -0.022679   0.002782
     8  H   -0.039227  -0.000147   0.002167  -0.000074   0.004458  -0.000068
     9  C   -0.015837   0.003851  -0.022835   0.004286   0.366653  -0.037827
    10  H    0.004463  -0.000013   0.003354  -0.000068  -0.040874  -0.001437
    11  C    0.036267  -0.002579  -0.011923  -0.000145   0.004133  -0.000253
    12  H   -0.000051   0.000057   0.000063   0.000022  -0.000119   0.000004
    13  C   -0.014394  -0.000747   0.038973  -0.001595  -0.027036   0.000096
    14  H   -0.000826   0.000153  -0.003066   0.000893   0.000105   0.000096
    15  C   -0.003692   0.000026  -0.008864  -0.000681   0.032126  -0.001432
    16  H    0.000148   0.000011   0.000850  -0.000059  -0.001445   0.000976
    17  C   -0.026851   0.000203   0.006481   0.000039  -0.007451   0.000282
    18  H    0.000226   0.000053  -0.000050   0.000006   0.000100   0.000017
    19  C    0.005166  -0.000023  -0.006474   0.000037  -0.007693   0.000467
    20  H    0.000019   0.000005  -0.000120   0.000013  -0.000434   0.000030
    21  Fe   0.121741  -0.016808   0.092652  -0.002956   0.126986  -0.002944
               7          8          9         10         11         12
     1  C    0.364612  -0.039227  -0.015837   0.004463   0.036267  -0.000051
     2  H   -0.037937  -0.000147   0.003851  -0.000013  -0.002579   0.000057
     3  C   -0.016865   0.002167  -0.022835   0.003354  -0.011923   0.000063
     4  H    0.002258  -0.000074   0.004286  -0.000068  -0.000145   0.000022
     5  C   -0.022679   0.004458   0.366653  -0.040874   0.004133  -0.000119
     6  H    0.002782  -0.000068  -0.037827  -0.001437  -0.000253   0.000004
     7  C    5.015473   0.374531   0.417515  -0.042623  -0.006860  -0.000023
     8  H    0.374531   0.566201  -0.040595  -0.003222  -0.000195  -0.000030
     9  C    0.417515  -0.040595   5.055382   0.378078  -0.002322   0.000021
    10  H   -0.042623  -0.003222   0.378078   0.566493  -0.000231   0.000014
    11  C   -0.006860  -0.000195  -0.002322  -0.000231   5.073162   0.365921
    12  H   -0.000023  -0.000030   0.000021   0.000014   0.365921   0.572419
    13  C   -0.002965   0.000239   0.005526   0.000075   0.372466  -0.037337
    14  H   -0.000020   0.000012  -0.000006   0.000006  -0.040801  -0.000658
    15  C    0.002856  -0.000129  -0.019845   0.000129  -0.024418   0.003160
    16  H   -0.000159   0.000004  -0.000106   0.000077   0.002965  -0.000126
    17  C    0.039225  -0.002492  -0.015063  -0.000533   0.382371  -0.037706
    18  H   -0.002891   0.000949  -0.000652   0.000180  -0.041056  -0.000607
    19  C   -0.017119   0.000020   0.034159  -0.001719  -0.028186   0.003072
    20  H    0.000214   0.000023  -0.000711   0.000831   0.003167  -0.000135
    21  Fe   0.105308  -0.003528   0.093595  -0.002774   0.114525  -0.003531
              13         14         15         16         17         18
     1  C   -0.014394  -0.000826  -0.003692   0.000148  -0.026851   0.000226
     2  H   -0.000747   0.000153   0.000026   0.000011   0.000203   0.000053
     3  C    0.038973  -0.003066  -0.008864   0.000850   0.006481  -0.000050
     4  H   -0.001595   0.000893  -0.000681  -0.000059   0.000039   0.000006
     5  C   -0.027036   0.000105   0.032126  -0.001445  -0.007451   0.000100
     6  H    0.000096   0.000096  -0.001432   0.000976   0.000282   0.000017
     7  C   -0.002965  -0.000020   0.002856  -0.000159   0.039225  -0.002891
     8  H    0.000239   0.000012  -0.000129   0.000004  -0.002492   0.000949
     9  C    0.005526  -0.000006  -0.019845  -0.000106  -0.015063  -0.000652
    10  H    0.000075   0.000006   0.000129   0.000077  -0.000533   0.000180
    11  C    0.372466  -0.040801  -0.024418   0.002965   0.382371  -0.041056
    12  H   -0.037337  -0.000658   0.003160  -0.000126  -0.037706  -0.000607
    13  C    5.081026   0.389389   0.390682  -0.044001  -0.006108   0.004670
    14  H    0.389389   0.599328  -0.046925  -0.001448   0.004435   0.000031
    15  C    0.390682  -0.046925   5.012566   0.373379  -0.020670   0.003832
    16  H   -0.044001  -0.001448   0.373379   0.581802   0.005690  -0.000022
    17  C   -0.006108   0.004435  -0.020670   0.005690   5.084538   0.388183
    18  H    0.004670   0.000031   0.003832  -0.000022   0.388183   0.596400
    19  C   -0.017564   0.004430   0.408051  -0.043681   0.382757  -0.044774
    20  H    0.005380  -0.000029  -0.042549  -0.002248  -0.047100  -0.001270
    21  Fe   0.081773  -0.012238   0.116887  -0.000860   0.094632  -0.011558
              19         20         21
     1  C    0.005166   0.000019   0.121741
     2  H   -0.000023   0.000005  -0.016808
     3  C   -0.006474  -0.000120   0.092652
     4  H    0.000037   0.000013  -0.002956
     5  C   -0.007693  -0.000434   0.126986
     6  H    0.000467   0.000030  -0.002944
     7  C   -0.017119   0.000214   0.105308
     8  H    0.000020   0.000023  -0.003528
     9  C    0.034159  -0.000711   0.093595
    10  H   -0.001719   0.000831  -0.002774
    11  C   -0.028186   0.003167   0.114525
    12  H    0.003072  -0.000135  -0.003531
    13  C   -0.017564   0.005380   0.081773
    14  H    0.004430  -0.000029  -0.012238
    15  C    0.408051  -0.042549   0.116887
    16  H   -0.043681  -0.002248  -0.000860
    17  C    0.382757  -0.047100   0.094632
    18  H   -0.044774  -0.001270  -0.011558
    19  C    5.036009   0.373891   0.099876
    20  H    0.373891   0.582127   0.000993
    21  Fe   0.099876   0.000993  24.278304
          Atomic-Atomic Spin Densities.
               1          2          3          4          5          6
     1  C    0.000000   0.000000  -0.000000  -0.000000   0.000000  -0.000000
     2  H    0.000000   0.000000  -0.000000  -0.000000   0.000000  -0.000000
     3  C   -0.000000  -0.000000  -0.000000   0.000000   0.000000   0.000000
     4  H   -0.000000  -0.000000   0.000000   0.000000   0.000000   0.000000
     5  C    0.000000   0.000000   0.000000   0.000000  -0.000000  -0.000000
     6  H   -0.000000  -0.000000   0.000000   0.000000  -0.000000   0.000000
     7  C   -0.000000  -0.000000   0.000000   0.000000  -0.000000   0.000000
     8  H   -0.000000  -0.000000   0.000000   0.000000  -0.000000  -0.000000
     9  C    0.000000  -0.000000  -0.000000  -0.000000   0.000000   0.000000
    10  H    0.000000   0.000000  -0.000000  -0.000000   0.000000   0.000000
    11  C    0.000000   0.000000   0.000000   0.000000  -0.000000  -0.000000
    12  H    0.000000   0.000000   0.000000  -0.000000   0.000000  -0.000000
    13  C    0.000000  -0.000000  -0.000000  -0.000000   0.000000   0.000000
    14  H    0.000000   0.000000  -0.000000  -0.000000   0.000000   0.000000
    15  C   -0.000000  -0.000000   0.000000  -0.000000  -0.000000  -0.000000
    16  H   -0.000000  -0.000000   0.000000  -0.000000  -0.000000  -0.000000
    17  C   -0.000000  -0.000000   0.000000  -0.000000   0.000000  -0.000000
    18  H   -0.000000  -0.000000  -0.000000  -0.000000   0.000000   0.000000
    19  C    0.000000   0.000000  -0.000000   0.000000  -0.000000   0.000000
    20  H    0.000000   0.000000  -0.000000   0.000000   0.000000   0.000000
    21  Fe  -0.000000   0.000000   0.000000  -0.000000   0.000000  -0.000000
               7          8          9         10         11         12
     1  C   -0.000000  -0.000000   0.000000   0.000000   0.000000   0.000000
     2  H   -0.000000  -0.000000  -0.000000   0.000000   0.000000   0.000000
     3  C    0.000000   0.000000  -0.000000  -0.000000   0.000000   0.000000
     4  H    0.000000   0.000000  -0.000000  -0.000000   0.000000  -0.000000
     5  C   -0.000000  -0.000000   0.000000   0.000000  -0.000000   0.000000
     6  H    0.000000  -0.000000   0.000000   0.000000  -0.000000  -0.000000
     7  C   -0.000000   0.000000   0.000000   0.000000  -0.000000   0.000000
     8  H    0.000000  -0.000000  -0.000000  -0.000000  -0.000000  -0.000000
     9  C    0.000000  -0.000000  -0.000000  -0.000000   0.000000   0.000000
    10  H    0.000000  -0.000000  -0.000000  -0.000000   0.000000  -0.000000
    11  C   -0.000000  -0.000000   0.000000   0.000000  -0.000000   0.000000
    12  H    0.000000  -0.000000   0.000000  -0.000000   0.000000   0.000000
    13  C    0.000000   0.000000  -0.000000   0.000000   0.000000   0.000000
    14  H    0.000000  -0.000000  -0.000000  -0.000000   0.000000  -0.000000
    15  C   -0.000000  -0.000000   0.000000   0.000000   0.000000  -0.000000
    16  H    0.000000  -0.000000  -0.000000  -0.000000   0.000000  -0.000000
    17  C   -0.000000  -0.000000  -0.000000  -0.000000   0.000000  -0.000000
    18  H    0.000000  -0.000000  -0.000000  -0.000000  -0.000000  -0.000000
    19  C    0.000000   0.000000   0.000000   0.000000   0.000000   0.000000
    20  H    0.000000   0.000000  -0.000000   0.000000   0.000000   0.000000
    21  Fe   0.000000   0.000000   0.000000  -0.000000  -0.000000   0.000000
              13         14         15         16         17         18
     1  C    0.000000   0.000000  -0.000000  -0.000000  -0.000000  -0.000000
     2  H   -0.000000   0.000000  -0.000000  -0.000000  -0.000000  -0.000000
     3  C   -0.000000  -0.000000   0.000000   0.000000   0.000000  -0.000000
     4  H   -0.000000  -0.000000  -0.000000  -0.000000  -0.000000  -0.000000
     5  C    0.000000   0.000000  -0.000000  -0.000000   0.000000   0.000000
     6  H    0.000000   0.000000  -0.000000  -0.000000  -0.000000   0.000000
     7  C    0.000000   0.000000  -0.000000   0.000000  -0.000000   0.000000
     8  H    0.000000  -0.000000  -0.000000  -0.000000  -0.000000  -0.000000
     9  C   -0.000000  -0.000000   0.000000  -0.000000  -0.000000  -0.000000
    10  H    0.000000  -0.000000   0.000000  -0.000000  -0.000000  -0.000000
    11  C    0.000000   0.000000   0.000000   0.000000   0.000000  -0.000000
    12  H    0.000000  -0.000000  -0.000000  -0.000000  -0.000000  -0.000000
    13  C    0.000000   0.000000   0.000000   0.000000  -0.000000   0.000000
    14  H    0.000000   0.000000  -0.000000  -0.000000  -0.000000   0.000000
    15  C    0.000000  -0.000000  -0.000000  -0.000000  -0.000000  -0.000000
    16  H    0.000000  -0.000000  -0.000000   0.000000  -0.000000   0.000000
    17  C   -0.000000  -0.000000  -0.000000  -0.000000  -0.000000  -0.000000
    18  H    0.000000   0.000000  -0.000000   0.000000  -0.000000  -0.000000
    19  C    0.000000   0.000000  -0.000000  -0.000000  -0.000000   0.000000
    20  H    0.000000   0.000000   0.000000  -0.000000  -0.000000   0.000000
    21  Fe  -0.000000   0.000000   0.000000   0.000000   0.000000   0.000000
              19         20         21
     1  C    0.000000   0.000000  -0.000000
     2  H    0.000000   0.000000   0.000000
     3  C   -0.000000  -0.000000   0.000000
     4  H    0.000000   0.000000  -0.000000
     5  C   -0.000000   0.000000   0.000000
     6  H    0.000000   0.000000  -0.000000
     7  C    0.000000   0.000000   0.000000
     8  H    0.000000   0.000000   0.000000
     9  C    0.000000  -0.000000   0.000000
    10  H    0.000000   0.000000  -0.000000
    11  C    0.000000   0.000000  -0.000000
    12  H    0.000000   0.000000   0.000000
    13  C    0.000000   0.000000  -0.000000
    14  H    0.000000   0.000000   0.000000
    15  C   -0.000000   0.000000   0.000000
    16  H   -0.000000  -0.000000   0.000000
    17  C   -0.000000  -0.000000   0.000000
    18  H    0.000000   0.000000   0.000000
    19  C    0.000000   0.000000  -0.000000
    20  H    0.000000  -0.000000  -0.000000
    21  Fe  -0.000000  -0.000000  -0.000000
 Mulliken charges and spin densities:
               1          2
     1  C   -0.256416   0.000000
     2  H    0.113335   0.000000
     3  C   -0.181862  -0.000000
     4  H    0.141088   0.000000
     5  C   -0.200381  -0.000000
     6  H    0.138822  -0.000000
     7  C   -0.174633  -0.000000
     8  H    0.141102  -0.000000
     9  C   -0.203266   0.000000
    10  H    0.139795  -0.000000
    11  C   -0.196008   0.000000
    12  H    0.135571   0.000000
    13  C   -0.218547   0.000000
    14  H    0.107139   0.000000
    15  C   -0.174490  -0.000000
    16  H    0.128251   0.000000
    17  C   -0.224861  -0.000000
    18  H    0.108234  -0.000000
    19  C   -0.180702   0.000000
    20  H    0.127903  -0.000000
    21  Fe   0.729926   0.000000
 Sum of Mulliken charges =  -0.00000  -0.00000
 Mulliken charges and spin densities with hydrogens summed into heavy atoms:
               1          2
     1  C   -0.143080   0.000000
     3  C   -0.040774  -0.000000
     5  C   -0.061559  -0.000000
     7  C   -0.033532  -0.000000
     9  C   -0.063471   0.000000
    11  C   -0.060436   0.000000
    13  C   -0.111408   0.000000
    15  C   -0.046239  -0.000000
    17  C   -0.116627  -0.000000
    19  C   -0.052799   0.000000
    21  Fe   0.729926   0.000000
 APT charges:
               1
     1  C   -0.839902
     2  H    0.583933
     3  C   -0.252445
     4  H    0.374395
     5  C   -0.359237
     6  H    0.351439
     7  C   -0.248532
     8  H    0.372972
     9  C   -0.362003
    10  H    0.350344
    11  C   -0.175143
    12  H    0.398660
    13  C   -0.828124
    14  H    0.557495
    15  C   -0.242013
    16  H    0.372535
    17  C   -0.825226
    18  H    0.556216
    19  C   -0.246142
    20  H    0.373112
    21  Fe   0.087665
 Sum of APT charges =  -0.00000
 APT charges with hydrogens summed into heavy atoms:
               1
     1  C   -0.255969
     3  C    0.121950
     5  C   -0.007798
     7  C    0.124440
     9  C   -0.011658
    11  C    0.223517
    13  C   -0.270629
    15  C    0.130523
    17  C   -0.269010
    19  C    0.126970
    21  Fe   0.087665
 Electronic spatial extent (au):  <R**2>=           1242.2066
 Charge=             -0.0000 electrons
 Dipole moment (field-independent basis, Debye):
    X=              0.4306    Y=             -0.0139    Z=             -0.0726  Tot=              0.4369
 Quadrupole moment (field-independent basis, Debye-Ang):
   XX=            -85.2623   YY=            -67.3947   ZZ=            -68.4776
   XY=              0.1072   XZ=             -0.9761   YZ=             -0.0603
 Traceless Quadrupole moment (field-independent basis, Debye-Ang):
   XX=            -11.5508   YY=              6.3169   ZZ=              5.2339
   XY=              0.1072   XZ=             -0.9761   YZ=             -0.0603
 Octapole moment (field-independent basis, Debye-Ang**2):
  XXX=              2.4828  YYY=              0.2410  ZZZ=              1.9733  XYY=              5.6189
  XXY=             -0.6599  XXZ=              4.4917  XZZ=             -1.4956  YZZ=             -0.5575
  YYZ=              0.0027  XYZ=              0.1241
 Hexadecapole moment (field-independent basis, Debye-Ang**3):
 XXXX=           -987.6259 YYYY=           -410.1538 ZZZZ=           -398.5144 XXXY=              0.6987
 XXXZ=             -5.9337 YYYX=              0.5018 YYYZ=             -0.0761 ZZZX=             -9.8288
 ZZZY=             -0.6473 XXYY=           -226.7838 XXZZ=           -228.7239 YYZZ=           -136.5629
 XXYZ=             -2.0029 YYXZ=              2.4644 ZZXY=              0.9761
 N-N= 9.427549055113D+02 E-N=-5.787864027646D+03  KE= 1.644878018727D+03
  Exact polarizability:       0.000       0.000       0.000       0.000       0.000       0.000
 Approx polarizability:     232.570      -0.193     197.822       3.520       0.006     194.633
                          Isotropic Fermi Contact Couplings
        Atom                 a.u.       MegaHertz       Gauss      10(-4) cm-1
     1  C(13)             -0.00000      -0.00000      -0.00000      -0.00000
     2  H(1)              -0.00000      -0.00000      -0.00000      -0.00000
     3  C(13)             -0.00000      -0.00000      -0.00000      -0.00000
     4  H(1)               0.00000       0.00000       0.00000       0.00000
     5  C(13)             -0.00000      -0.00000      -0.00000      -0.00000
[...]
    18  H    0.000000   0.000000  -0.000000   0.000000  -0.000000   0.000000
    19  C   -0.000000  -0.000000  -0.000000  -0.000000   0.000000  -0.000000
    20  H   -0.000000   0.000000  -0.000000   0.000000   0.000000  -0.000000
    21  Fe  -0.000000  -0.000000   0.000000  -0.000000  -0.000000  -0.000000
               7          8          9         10         11         12
     1  C   -0.000000  -0.000000   0.000000   0.000000  -0.000000  -0.000000
     2  H   -0.000000  -0.000000   0.000000   0.000000   0.000000   0.000000
     3  C   -0.000000   0.000000  -0.000000  -0.000000   0.000000  -0.000000
     4  H    0.000000   0.000000  -0.000000  -0.000000  -0.000000  -0.000000
     5  C   -0.000000   0.000000   0.000000   0.000000   0.000000   0.000000
     6  H   -0.000000  -0.000000   0.000000   0.000000  -0.000000   0.000000
     7  C    0.000000   0.000000   0.000000   0.000000   0.000000   0.000000
     8  H    0.000000   0.000000  -0.000000  -0.000000  -0.000000   0.000000
     9  C    0.000000  -0.000000  -0.000000  -0.000000  -0.000000  -0.000000
    10  H    0.000000  -0.000000  -0.000000  -0.000000  -0.000000  -0.000000
    11  C    0.000000  -0.000000  -0.000000  -0.000000  -0.000000  -0.000000
    12  H    0.000000   0.000000  -0.000000  -0.000000  -0.000000  -0.000000
    13  C   -0.000000  -0.000000  -0.000000   0.000000   0.000000   0.000000
    14  H   -0.000000   0.000000   0.000000   0.000000   0.000000   0.000000
    15  C   -0.000000   0.000000   0.000000  -0.000000  -0.000000  -0.000000
    16  H   -0.000000   0.000000   0.000000  -0.000000  -0.000000  -0.000000
    17  C   -0.000000   0.000000   0.000000   0.000000   0.000000   0.000000
    18  H   -0.000000   0.000000   0.000000   0.000000   0.000000   0.000000
    19  C    0.000000  -0.000000  -0.000000  -0.000000  -0.000000  -0.000000
    20  H    0.000000  -0.000000  -0.000000  -0.000000  -0.000000  -0.000000
    21  Fe   0.000000   0.000000  -0.000000  -0.000000   0.000000  -0.000000
              13         14         15         16         17         18
     1  C   -0.000000  -0.000000   0.000000   0.000000   0.000000   0.000000
     2  H    0.000000   0.000000   0.000000   0.000000   0.000000   0.000000
     3  C   -0.000000  -0.000000   0.000000  -0.000000   0.000000  -0.000000
     4  H   -0.000000   0.000000  -0.000000   0.000000   0.000000   0.000000
     5  C   -0.000000  -0.000000   0.000000  -0.000000  -0.000000  -0.000000
     6  H   -0.000000  -0.000000   0.000000   0.000000   0.000000   0.000000
     7  C   -0.000000  -0.000000  -0.000000  -0.000000  -0.000000  -0.000000
     8  H   -0.000000   0.000000   0.000000   0.000000   0.000000   0.000000
     9  C   -0.000000   0.000000   0.000000   0.000000   0.000000   0.000000
    10  H    0.000000   0.000000  -0.000000  -0.000000   0.000000   0.000000
    11  C    0.000000   0.000000  -0.000000  -0.000000   0.000000   0.000000
    12  H    0.000000   0.000000  -0.000000  -0.000000   0.000000   0.000000
    13  C   -0.000000  -0.000000   0.000000   0.000000  -0.000000  -0.000000
    14  H   -0.000000  -0.000000   0.000000   0.000000  -0.000000   0.000000
    15  C    0.000000   0.000000  -0.000000  -0.000000  -0.000000  -0.000000
    16  H    0.000000   0.000000  -0.000000  -0.000000   0.000000  -0.000000
    17  C   -0.000000  -0.000000  -0.000000   0.000000  -0.000000  -0.000000
    18  H   -0.000000   0.000000  -0.000000  -0.000000  -0.000000  -0.000000
    19  C   -0.000000  -0.000000   0.000000   0.000000   0.000000   0.000000
    20  H   -0.000000  -0.000000   0.000000   0.000000   0.000000   0.000000
    21  Fe  -0.000000   0.000000  -0.000000  -0.000000  -0.000000  -0.000000
              19         20         21
     1  C   -0.000000  -0.000000  -0.000000
     2  H   -0.000000   0.000000  -0.000000
     3  C   -0.000000  -0.000000   0.000000
     4  H   -0.000000   0.000000  -0.000000
     5  C    0.000000   0.000000  -0.000000
     6  H   -0.000000  -0.000000  -0.000000
     7  C    0.000000   0.000000   0.000000
     8  H   -0.000000  -0.000000   0.000000
     9  C   -0.000000  -0.000000  -0.000000
    10  H   -0.000000  -0.000000  -0.000000
    11  C   -0.000000  -0.000000   0.000000
    12  H   -0.000000  -0.000000  -0.000000
    13  C   -0.000000  -0.000000  -0.000000
    14  H   -0.000000  -0.000000   0.000000
    15  C    0.000000   0.000000  -0.000000
    16  H    0.000000   0.000000  -0.000000
    17  C    0.000000   0.000000  -0.000000
    18  H    0.000000   0.000000  -0.000000
    19  C   -0.000000  -0.000000   0.000000
    20  H   -0.000000  -0.000000   0.000000
    21  Fe   0.000000   0.000000  -0.000000
 Mulliken charges and spin densities:
               1          2
     1  C   -0.197610  -0.000000
     2  H    0.123407  -0.000000
     3  C   -0.197740   0.000000
     4  H    0.123442  -0.000000
     5  C   -0.197701   0.000000
     6  H    0.123385  -0.000000
     7  C   -0.197669   0.000000
     8  H    0.123366   0.000000
     9  C   -0.197403  -0.000000
    10  H    0.123433  -0.000000
    11  C   -0.197514   0.000000
    12  H    0.123413  -0.000000
    13  C   -0.197699   0.000000
    14  H    0.123371  -0.000000
    15  C   -0.197685   0.000000
    16  H    0.123376  -0.000000
    17  C   -0.197484   0.000000
    18  H    0.123395  -0.000000
    19  C   -0.197658   0.000000
    20  H    0.123323  -0.000000
    21  Fe   0.742253   0.000000
 Sum of Mulliken charges =  -0.00000  -0.00000
 Mulliken charges and spin densities with hydrogens summed into heavy atoms:
               1          2
     1  C   -0.074203  -0.000000
     3  C   -0.074298   0.000000
     5  C   -0.074317   0.000000
     7  C   -0.074303   0.000000
     9  C   -0.073970  -0.000000
    11  C   -0.074100  -0.000000
    13  C   -0.074328   0.000000
    15  C   -0.074309  -0.000000
    17  C   -0.074089  -0.000000
    19  C   -0.074336   0.000000
    21  Fe   0.742253   0.000000
 Electronic spatial extent (au):  <R**2>=           1340.1369
 Charge=             -0.0000 electrons
 Dipole moment (field-independent basis, Debye):
    X=              0.0011    Y=             -0.0029    Z=             -0.0009  Tot=              0.0032
 Quadrupole moment (field-independent basis, Debye-Ang):
   XX=            -80.1443   YY=            -66.4758   ZZ=            -66.4757
   XY=              0.0003   XZ=             -0.0049   YZ=             -0.0008
 Traceless Quadrupole moment (field-independent basis, Debye-Ang):
   XX=             -9.1124   YY=              4.5561   ZZ=              4.5562
   XY=              0.0003   XZ=             -0.0049   YZ=             -0.0008
 Octapole moment (field-independent basis, Debye-Ang**2):
  XXX=              0.0143  YYY=             -0.0029  ZZZ=             -0.0023  XYY=              0.0038
  XXY=              0.0207  XXZ=              0.0392  XZZ=              0.0048  YZZ=             -0.0042
  YYZ=              0.0028  XYZ=             -0.0027
 Hexadecapole moment (field-independent basis, Debye-Ang**3):
 XXXX=          -1146.0433 YYYY=           -377.2623 ZZZZ=           -377.2504 XXXY=              0.0122
 XXXZ=             -0.0344 YYYX=              0.0071 YYYZ=              0.0010 ZZZX=             -0.0136
 ZZZY=             -0.0050 XXYY=           -231.6881 XXZZ=           -231.6619 YYZZ=           -125.7524
 XXYZ=             -0.0003 YYXZ=             -0.0076 ZZXY=             -0.0005
 N-N= 9.187666483647D+02 E-N=-5.741565921830D+03  KE= 1.645249186693D+03
                          Isotropic Fermi Contact Couplings
        Atom                 a.u.       MegaHertz       Gauss      10(-4) cm-1
     1  C(13)             -0.00000      -0.00000      -0.00000      -0.00000
     2  H(1)               0.00000       0.00000       0.00000       0.00000
     3  C(13)              0.00000       0.00000       0.00000       0.00000
     4  H(1)              -0.00000      -0.00000      -0.00000      -0.00000
     5  C(13)             -0.00000      -0.00000      -0.00000      -0.00000
     6  H(1)               0.00000       0.00000       0.00000       0.00000
     7  C(13)             -0.00000      -0.00000      -0.00000      -0.00000
     8  H(1)              -0.00000      -0.00000      -0.00000      -0.00000
     9  C(13)             -0.00000      -0.00000      -0.00000      -0.00000
    10  H(1)               0.00000       0.00000       0.00000       0.00000
    11  C(13)             -0.00000      -0.00000      -0.00000      -0.00000
    12  H(1)              -0.00000      -0.00000      -0.00000      -0.00000
    13  C(13)             -0.00000      -0.00000      -0.00000      -0.00000
    14  H(1)               0.00000       0.00000       0.00000       0.00000
    15  C(13)             -0.00000      -0.00000      -0.00000      -0.00000
    16  H(1)               0.00000       0.00000       0.00000       0.00000
    17  C(13)              0.00000       0.00000       0.00000       0.00000
    18  H(1)               0.00000       0.00000       0.00000       0.00000
    19  C(13)             -0.00000      -0.00000      -0.00000      -0.00000
    20  H(1)              -0.00000      -0.00000      -0.00000      -0.00000
    21  Fe(57)             0.00000       0.00000       0.00000       0.00000
 --------------------------------------------------------
       Center         ----  Spin Dipole Couplings  ----
                      3XX-RR        3YY-RR        3ZZ-RR
 --------------------------------------------------------
     1   Atom        0.000000      0.000000      0.000000
     2   Atom        0.000000      0.000000      0.000000
     3   Atom        0.000000      0.000000      0.000000
     4   Atom        0.000000      0.000000      0.000000
     5   Atom        0.000000      0.000000      0.000000
     6   Atom        0.000000      0.000000      0.000000
     7   Atom        0.000000      0.000000      0.000000
     8   Atom        0.000000      0.000000      0.000000
     9   Atom        0.000000      0.000000      0.000000
    10   Atom        0.000000      0.000000      0.000000
    11   Atom        0.000000      0.000000      0.000000
    12   Atom        0.000000      0.000000      0.000000
    13   Atom        0.000000      0.000000      0.000000
    14   Atom        0.000000      0.000000      0.000000
    15   Atom        0.000000      0.000000      0.000000
    16   Atom        0.000000      0.000000      0.000000
    17   Atom        0.000000      0.000000      0.000000
    18   Atom        0.000000      0.000000      0.000000
    19   Atom        0.000000      0.000000      0.000000
    20   Atom        0.000000      0.000000      0.000000
    21   Atom        0.000000      0.000000      0.000000
 --------------------------------------------------------
                        XY            XZ            YZ
 --------------------------------------------------------
     1   Atom        0.000000      0.000000      0.000000
     2   Atom        0.000000      0.000000      0.000000
     3   Atom        0.000000      0.000000      0.000000
     4   Atom        0.000000      0.000000      0.000000
     5   Atom        0.000000      0.000000      0.000000
     6   Atom        0.000000      0.000000      0.000000
     7   Atom        0.000000      0.000000      0.000000
     8   Atom        0.000000      0.000000      0.000000
     9   Atom        0.000000      0.000000      0.000000
    10   Atom        0.000000      0.000000      0.000000
    11   Atom        0.000000      0.000000      0.000000
    12   Atom        0.000000      0.000000      0.000000
    13   Atom        0.000000      0.000000      0.000000
    14   Atom        0.000000      0.000000      0.000000
    15   Atom        0.000000      0.000000      0.000000
    16   Atom        0.000000      0.000000      0.000000
    17   Atom        0.000000      0.000000      0.000000
    18   Atom        0.000000      0.000000      0.000000
    19   Atom        0.000000      0.000000      0.000000
    20   Atom        0.000000      0.000000      0.000000
    21   Atom        0.000000      0.000000      0.000000
 --------------------------------------------------------


 ---------------------------------------------------------------------------------
              Anisotropic Spin Dipole Couplings in Principal Axis System
 ---------------------------------------------------------------------------------

       Atom             a.u.   MegaHertz   Gauss  10(-4) cm-1        Axes

              Baa     0.0000     0.000     0.000     0.000  1.0000  0.0000  0.0000
     1 C(13)  Bbb     0.0000     0.000     0.000     0.000 -0.0000  1.0000  0.0000
              Bcc     0.0000     0.000     0.000     0.000  0.0000  0.0000  1.0000
 
              Baa     0.0000     0.000     0.000     0.000  1.0000  0.0000  0.0000
     2 H(1)   Bbb     0.0000     0.000     0.000     0.000 -0.0000  1.0000  0.0000
              Bcc     0.0000     0.000     0.000     0.000  0.0000  0.0000  1.0000
 
              Baa     0.0000     0.000     0.000     0.000  1.0000  0.0000  0.0000
     3 C(13)  Bbb     0.0000     0.000     0.000     0.000 -0.0000  1.0000  0.0000
              Bcc     0.0000     0.000     0.000     0.000  0.0000  0.0000  1.0000
 
              Baa     0.0000     0.000     0.000     0.000  1.0000  0.0000  0.0000
     4 H(1)   Bbb     0.0000     0.000     0.000     0.000 -0.0000  1.0000  0.0000
              Bcc     0.0000     0.000     0.000     0.000  0.0000  0.0000  1.0000
 
              Baa     0.0000     0.000     0.000     0.000  1.0000  0.0000  0.0000
     5 C(13)  Bbb     0.0000     0.000     0.000     0.000 -0.0000  1.0000  0.0000
              Bcc     0.0000     0.000     0.000     0.000  0.0000  0.0000  1.0000
 
              Baa     0.0000     0.000     0.000     0.000  1.0000  0.0000  0.0000
     6 H(1)   Bbb     0.0000     0.000     0.000     0.000 -0.0000  1.0000  0.0000
              Bcc     0.0000     0.000     0.000     0.000  0.0000  0.0000  1.0000
 
              Baa     0.0000     0.000     0.000     0.000  1.0000  0.0000  0.0000
     7 C(13)  Bbb     0.0000     0.000     0.000     0.000 -0.0000  1.0000  0.0000
              Bcc     0.0000     0.000     0.000     0.000  0.0000  0.0000  1.0000
 
              Baa     0.0000     0.000     0.000     0.000  1.0000  0.0000  0.0000
     8 H(1)   Bbb     0.0000     0.000     0.000     0.000 -0.0000  1.0000  0.0000
              Bcc     0.0000     0.000     0.000     0.000  0.0000  0.0000  1.0000
 
              Baa     0.0000     0.000     0.000     0.000  1.0000  0.0000  0.0000
     9 C(13)  Bbb     0.0000     0.000     0.000     0.000 -0.0000  1.0000  0.0000
              Bcc     0.0000     0.000     0.000     0.000  0.0000  0.0000  1.0000
 
              Baa     0.0000     0.000     0.000     0.000  1.0000  0.0000  0.0000
    10 H(1)   Bbb     0.0000     0.000     0.000     0.000 -0.0000  1.0000  0.0000
              Bcc     0.0000     0.000     0.000     0.000  0.0000  0.0000  1.0000
 
              Baa     0.0000     0.000     0.000     0.000  1.0000  0.0000  0.0000
    11 C(13)  Bbb     0.0000     0.000     0.000     0.000 -0.0000  1.0000  0.0000
              Bcc     0.0000     0.000     0.000     0.000  0.0000  0.0000  1.0000
 
              Baa     0.0000     0.000     0.000     0.000  1.0000  0.0000  0.0000
    12 H(1)   Bbb     0.0000     0.000     0.000     0.000 -0.0000  1.0000  0.0000
              Bcc     0.0000     0.000     0.000     0.000  0.0000  0.0000  1.0000
 
              Baa     0.0000     0.000     0.000     0.000  1.0000  0.0000  0.0000
    13 C(13)  Bbb     0.0000     0.000     0.000     0.000 -0.0000  1.0000  0.0000
              Bcc     0.0000     0.000     0.000     0.000  0.0000  0.0000  1.0000
 
              Baa     0.0000     0.000     0.000     0.000  1.0000  0.0000  0.0000
    14 H(1)   Bbb     0.0000     0.000     0.000     0.000 -0.0000  1.0000  0.0000
              Bcc     0.0000     0.000     0.000     0.000  0.0000  0.0000  1.0000
 
              Baa     0.0000     0.000     0.000     0.000  1.0000  0.0000  0.0000
    15 C(13)  Bbb     0.0000     0.000     0.000     0.000 -0.0000  1.0000  0.0000
              Bcc     0.0000     0.000     0.000     0.000  0.0000  0.0000  1.0000
 
              Baa     0.0000     0.000     0.000     0.000  1.0000  0.0000  0.0000
    16 H(1)   Bbb     0.0000     0.000     0.000     0.000 -0.0000  1.0000  0.0000
              Bcc     0.0000     0.000     0.000     0.000  0.0000  0.0000  1.0000
 
              Baa     0.0000     0.000     0.000     0.000  1.0000  0.0000  0.0000
    17 C(13)  Bbb     0.0000     0.000     0.000     0.000 -0.0000  1.0000  0.0000
              Bcc     0.0000     0.000     0.000     0.000  0.0000  0.0000  1.0000
 
              Baa     0.0000     0.000     0.000     0.000  1.0000  0.0000  0.0000
    18 H(1)   Bbb     0.0000     0.000     0.000     0.000 -0.0000  1.0000  0.0000
              Bcc     0.0000     0.000     0.000     0.000  0.0000  0.0000  1.0000
 
              Baa     0.0000     0.000     0.000     0.000  1.0000  0.0000  0.0000
    19 C(13)  Bbb     0.0000     0.000     0.000     0.000 -0.0000  1.0000  0.0000
              Bcc     0.0000     0.000     0.000     0.000  0.0000  0.0000  1.0000
 
              Baa     0.0000     0.000     0.000     0.000  1.0000  0.0000  0.0000
    20 H(1)   Bbb     0.0000     0.000     0.000     0.000 -0.0000  1.0000  0.0000
              Bcc     0.0000     0.000     0.000     0.000  0.0000  0.0000  1.0000
 
              Baa     0.0000     0.000     0.000     0.000  1.0000  0.0000  0.0000
    21 Fe(57) Bbb     0.0000     0.000     0.000     0.000 -0.0000  1.0000  0.0000
              Bcc     0.0000     0.000     0.000     0.000  0.0000  0.0000  1.0000
 

 ---------------------------------------------------------------------------------

 No NMR shielding tensors so no spin-rotation constants.
 Leave Link  601 at Fri Jan 31 16:53:15 2025, MaxMem= 13421772800 cpu:              17.4 elap:               0.3
 (Enter /gpfs/fs1/soft/improv/software/custom-built/gaussian/g16/l9999.exe)
 Unable to Open any file for archive entry.
 1\1\GINC-I372\SP\UB3LYP\Gen\C10H10Fe1\HHARB\31-Jan-2025\0\\#p ub3lyp s
 cf=(novaracc,maxcycles=1000,fermi,xqc) empiricaldispersion=gd3 geom=al
 lcheck guess=read chkbasis scrf=(cpcm,solvent=acetonitrile)\\Title Car
 d Required\\0,1\C,-0.6820952882,0.6338770459,0.1377059753\H,0.17480028
 8,1.2801306304,0.2571251127\C,-1.1880461511,0.1316604163,-1.0987619334
 \H,-0.7814943629,0.3318582194,-2.0791946927\C,-2.3391756172,-0.6624253
 862,-0.81422989\H,-2.9565305221,-1.1691150433,-1.5414964263\C,-1.52067
 80091,0.1501476255,1.1861252807\H,-1.4095513992,0.3661075221,2.2388336
 913\C,-2.5445356002,-0.6513349269,0.597993369\H,-3.3444356655,-1.14766
 2856,1.1271347232\C,-2.6100906996,3.3010015705,-0.068478462\H,-1.75000
 65612,3.921158136,0.1362615078\C,-3.0343524369,2.8537515405,-1.3555486
 335\H,-2.5517396062,3.0766707686,-2.2956894833\C,-4.1955175804,2.04271
 13646,-1.1801804733\H,-4.7455776111,1.5441278234,-1.9642032977\C,-3.50
 88325206,2.7661916663,0.9025498503\H,-3.4480861731,2.9105316531,1.9712
 303878\C,-4.4886542114,1.9885195559,0.2156274575\H,-5.3000993396,1.442
 1065587,0.6732458427\Fe,-2.6118629324,1.2549155752,-0.1481050562\\Vers
 ion=ES64L-G16RevC.02\State=1-A\HF=-1650.7697565\S2=0.\S2-1=0.\S2A=0.\R
 MSD=5.192e-09\Dipole=0.0002396,0.000792,0.0009702\Quadrupole=-0.032706
 4,-3.2716724,3.3043788,4.7720187,-0.5341801,0.7445394\PG=C01 [X(C10H10
 Fe1)]\\@
 The archive entry for this job was punched.


 THE ... SCIENTISTS WERE WRONG ... THE MOST PERSISTENT PRINCIPLES 
 OF THE UNIVERSE WERE ACCIDENT AND ERROR.

                          -- FRANK HERBERT IN DUNE
 Job cpu time:       0 days  0 hours 37 minutes 28.8 seconds.
 Elapsed time:       0 days  0 hours  0 minutes 21.0 seconds.
 File lengths (MBytes):  RWF=    140 Int=      0 D2E=      0 Chk=     48 Scr=      1
 Normal termination of Gaussian 16 at Fri Jan 31 16:53:15 2025.
