141
 energy: -203.321902101471 gnorm: 0.000467224790 xtb: 6.6.0 (conda-forge)
C           -1.71014000019499        1.02415000037815       -0.62531000051974
H           -1.80417489705931        2.08563904695291       -0.46889761801492
C           -1.78017926738931        0.03016254961440        0.38013895728741
H           -1.93761934456981        0.20505103510114        1.43065574898989
C           -1.72147462480604       -1.23541826338124       -0.25073229629670
H           -1.82639940055410       -2.18999546646965        0.23680723581474
C           -1.60923273941748        0.37304629025991       -1.87825893725326
H           -1.61374007986889        0.85251496840056       -2.84255677385524
C           -1.61501459075667       -1.02344995660225       -1.64613625985645
H           -1.62298027767250       -1.78971361801736       -2.40279380393248
C            2.01789620632933        0.44736913706857       -1.58873454062196
H            2.15527522483786        0.95877924031985       -2.52684062981930
C            1.91816821286862        1.05853598440170       -0.31529795438457
H            1.96174563938994        2.11711251437639       -0.12006158299882
C            1.85959313924956        0.03263664609948        0.65889048102219
H            1.85324691412970        0.17005157048636        1.72716734188417
C            2.02037177653191       -0.95591037094479       -1.40107314904045
H            2.15901567920392       -1.69418495814649       -2.17267026676266
C            1.92135671240900       -1.21257947087108       -0.01207824613834
H            1.97357536614630       -2.17996462100250        0.45925234922508
Fe           0.13053967053074       -0.14732767544552       -0.66597861171071
C            2.58969742947920        0.43948116048391        7.18070140037743
C            2.23914938897599       -0.68682336892678        7.99284711884414
N            1.95898840710770       -1.58760836807273        8.64206523717520
H            2.61358550824006        1.33700755755926        7.79742658868029
H            3.57321438875980        0.27629075090934        6.74236053611468
H            1.85268141460788        0.56095588431901        6.38825887685784
C           -1.61493709823741       -4.38296514237717        6.06622505272026
C           -1.01608054388480       -3.47638475805011        5.13313358464485
N           -0.54096430209073       -2.75211052383666        4.38474062521394
H           -1.18344312577220       -4.22788827072429        7.05416366264762
H           -2.68853682052844       -4.20290460580601        6.10777521063703
H           -1.43122409142994       -5.40768541917762        5.74626692325934
C            0.05653664520681        6.18691209369770        4.32947771168440
C           -0.02238531682844        4.82617493109603        3.89411087634606
N           -0.08679823709152        3.73686359305185        3.54685032262051
H            0.80707002154834        6.27618447938934        5.11403787662459
H            0.33540857978575        6.81994774736648        3.48813940246692
H           -0.91194820698904        6.50432594113416        4.71381351531748
C            3.49809686694183       -6.03603287488957        5.68687380664246
C            3.79201382201024       -5.28476773052863        4.50325611929492
N            4.02685513933434       -4.68596731340584        3.55620952028704
H            4.40233762534201       -6.53323688957532        6.03620122308001
H            3.13268392924751       -5.36340521185150        6.46184551562338
H            2.73715284997353       -6.78279952129041        5.46345965073707
C           -3.94425553721701        1.17691384617573        5.82946882310498
C           -4.65487991128005        0.11885165285273        5.17578365182086
N           -5.21834562180451       -0.72596965475324        4.64692812770244
H           -2.88580798820676        0.92426284000980        5.88080816764046
H           -4.07010172999528        2.10081930126787        5.26625176366549
H           -4.33576276766074        1.30971710924401        6.83742824661251
C            5.45772707436987        3.96018197985681        3.57838134317157
C            5.16124430636173        4.37674474579023        4.91615823112589
N            4.92039500751871        4.70591218317785        5.98626806540096
H            4.52810043697863        3.78403058901133        3.03956168611300
H            6.02714051690238        4.73942274836775        3.07378234217780
H            6.04566719290062        3.04381782670632        3.60415121390814
C           -2.69541144747276      -10.19803206056624        2.45714701118165
C           -1.53515939228214       -9.66888147106240        3.10970546402150
N           -0.60690942438074       -9.24322637433581        3.62744651023177
H           -3.50547357353556      -10.29465604211646        3.17895491310892
H           -2.99973686477943       -9.52421631937151        1.65712161566293
H           -2.46280870935307      -11.17733494608444        2.04056647973349
C           -4.42674670148920       10.81315899597405        0.72400573174966
C           -3.94732769417499        9.59309637731300        1.30215018071884
N           -3.56070927680068        8.61859967146209        1.76205109978297
H           -5.21878566496521       11.22456534813681        1.34848917395729
H           -3.60848213247572       11.52924467920227        0.65762062135917
H           -4.81723647347754       10.61311520891982       -0.27298909320796
C            6.93399662988292       -2.76087631488721       -0.05569914472195
C            7.95201327848645       -2.69252386824952       -1.06059648879225
N            8.76411292486956       -2.63591415262518       -1.86614506858734
H            6.53600833976003       -1.76342736930893        0.12388012149985
H            6.13539066336011       -3.42079000334771       -0.39124724652416
H            7.36152538737189       -3.15179231713195        0.86655992630784
C           -7.45416097241049       -3.46312059387497        0.92844760595717
C           -7.77448930508118       -3.39168999756364       -0.46562744812103
N           -8.02990358073388       -3.33451272200914       -1.58045896906070
H           -6.39436087826073       -3.68414698996652        1.04741323295839
H           -7.68083287183628       -2.50946084106021        1.40299154408742
H           -8.04483014697729       -4.24989701184432        1.39596762873959
C            4.83265994053218        6.09488231516035       -1.77111361881021
C            3.96197977363878        6.59873600692678       -0.75219059271178
N            3.26483514695536        6.99581195025921        0.06494608566652
H            5.83391272988037        6.49897730352165       -1.62754390726320
H            4.86938200964648        5.00834751577368       -1.71272250682662
H            4.45790344335776        6.39051506063501       -2.75011395234716
C            1.88493267531248       -7.73979369284232       -0.51786820665530
C            2.37655195147618       -6.73527087365170       -1.41212108342604
N            2.76491014762509       -5.92913693418102       -2.12622679481093
H            2.29444152684808       -7.57236705435219        0.47742651430578
H            0.79796676751003       -7.68506533190451       -0.47593625588557
H            2.18675340451865       -8.72419207503098       -0.87339075581790
C           -8.31651585661578        6.89841446455722       -4.37017901164732
C           -7.08034195932735        7.51244382311300       -3.98595695669824
N           -6.09182246144105        8.00027387256026       -3.67692301262511
H           -9.04210733619887        7.00725011368694       -3.56499541833937
H           -8.69724340381083        7.38110993271959       -5.26945078679464
H           -8.14939092803112        5.84041667562552       -4.56809608428888
C            9.61160434362885        2.21651099747872       -2.44624028820608
C            8.80430805915424        2.34027741729835       -1.27030349904259
N            8.15579630806734        2.44086138593119       -0.33199360794760
H           10.41666014197772        1.50652523588443       -2.26105695519448
H            8.99629958273214        1.85802363201269       -3.27046439882205
H           10.03413898401391        3.18722939113002       -2.70265164014849
C           -4.35286795357274       -5.79649241950800       -3.77522271001532
C           -3.82230390047967       -6.02878479025544       -2.46625547613917
N           -3.39614668569850       -6.21025073879864       -1.41896035788810
H           -5.32072736691235       -6.28767695198286       -3.86732628330570
H           -4.47786566092723       -4.72612148345621       -3.93214583811248
H           -3.66980355409776       -6.19558150137875       -4.52394780142181
C           -1.12448860171310        7.14314897368097       -2.86326745731855
C           -0.44317487178818        5.91358539157728       -3.13377750965640
N            0.09895757616418        4.92796560881802       -3.34765559736396
H           -1.92702557883465        6.96346325554767       -2.14911168806878
H           -0.42310768029008        7.86339046346670       -2.44394619254385
H           -1.54545561890132        7.53903091592512       -3.78657730746305
C            5.48500692887294       -2.73350881380233       -5.74542520842520
C            5.24532580981116       -2.45114454336260       -7.12870976246237
N            5.05161450713518       -2.22573137307502       -8.23474931159097
H            5.54724873727558       -1.79885997030061       -5.19007110541601
H            4.67035640015629       -3.34013981429492       -5.35259987254958
H            6.42345734695384       -3.27726191426579       -5.64491601738004
C           -7.46734070364205       -3.57740522981018       -9.13439261596841
C           -6.12347535650789       -3.63338189194371       -8.64094931904799
N           -5.05039804515875       -3.67697550118345       -8.24456043462017
H           -8.15583480175610       -3.87850287042846       -8.34567997829189
H           -7.69721349926190       -2.55970347267253       -9.44762455036659
H           -7.57106908719611       -4.25083774602742       -9.98435565316709
C            3.28389857967233        2.78994153697816       -7.30679801326023
C            4.32845330835003        2.74905004057999       -6.32803097456873
N            5.15808331524410        2.71650914743168       -5.53957037786008
H            2.32249087603389        2.89393133856373       -6.80546136931307
H            3.44231939390228        3.63824838864418       -7.97153629687275
H            3.29476320894993        1.86808939882530       -7.88668526145940
C           -0.16340001848138       -2.37802648167264       -8.51206680463244
C            0.16430132081484       -1.77181576917499       -7.25713349932033
N            0.42171211968566       -1.28803856073452       -6.25190063258574
H           -0.51296756785046       -3.39567155841212       -8.34315833169838
H           -0.95013682620592       -1.80339412151776       -8.99933707952530
H            0.71987752810468       -2.39955549868326       -9.14914975206597
