141
 energy: -203.669498210249 gnorm: 0.001343073438 xtb: 6.6.0 (conda-forge)
C           -1.64770999994955       -0.47374000003020       -1.11824000010319
H           -1.66412078596673       -0.92447237392958       -2.09626277734482
C           -1.62102476926391        0.91251042379262       -0.84067581356188
H           -1.61493282229664        1.70526936366009       -1.56976010447352
C           -1.69410583071702        1.07836214042491        0.56127412485739
H           -1.74866909786453        2.01806599613897        1.08448657468409
C           -1.73733404343112       -1.16425588352803        0.11226454324503
H           -1.83324758078889       -2.22970084732019        0.23364048031450
C           -1.76557644120213       -0.20472321811681        1.14999775715111
H           -1.88260499364395       -0.41335045376896        2.19944124309259
C            1.94393005461956       -0.57727032253549       -0.89623094060681
H            2.06089402807145       -0.98594947025764       -1.88565640619589
C            1.99197551399665        0.79342340861624       -0.55231806342917
H            2.15381134710174        1.61222222080344       -1.23222318987908
C            1.88530307067059        0.89543588992441        0.85335416643965
H            1.94266467014597        1.80510385131770        1.42573817292344
C            1.80738231052299       -1.32170345100069        0.29847411343053
H            1.80114084796903       -2.39508394301490        0.37721833742456
C            1.77254583051385       -0.41136858054826        1.37979367339576
H            1.72940302643559       -0.67029730153796        2.42399906626594
Fe           0.09609422522078       -0.03837049360411        0.08210500193911
C            2.05361985131604       -0.35983504414727        9.72210634844073
C            0.92853180983206       -1.04588512952320       10.28247958390612
N            0.02799117760220       -1.59510652062445       10.72837405050328
H            1.84017298155512       -0.09843746492680        8.68670003893331
H            2.24805953424478        0.54849443866917       10.29085106760893
H            2.92971251618046       -1.00581015861570        9.75838729901921
C           -2.61500850614497       -2.72933563541284        6.54551605102421
C           -3.80520209170674       -2.75775596114870        5.75103592635785
N           -4.75982481088173       -2.78100790400291        5.11880564856296
H           -1.98130787210850       -3.57493167337247        6.28106869801863
H           -2.07431933000808       -1.80148081756561        6.36319941382694
H           -2.88098557510405       -2.79141253313516        7.59997600114749
C            0.15110771031783        4.82818180642524        5.09547440787198
C           -0.11135750792870        3.44197341109028        5.33888166492851
N           -0.32289809465921        2.33349766040435        5.53342478887391
H            0.74060420536656        5.23555465839857        5.91586918707147
H            0.70495242977359        4.93669837832981        4.16389061668752
H           -0.79220073448834        5.36773860568619        5.02067801922024
C            3.63094702610260       -5.03817435778324        4.54016530810081
C            3.91360880830774       -3.81477977094748        5.22825640062433
N            4.13963225490318       -2.83451917757169        5.77550168646039
H            3.27393548980597       -5.78233249101955        5.25098353923569
H            2.86485010195470       -4.86228363448050        3.78646363428607
H            4.53662115116360       -5.40247108853725        4.05688025385464
C           -5.29520593378190        2.23153592608957        5.20168234084688
C           -5.31724862388269        3.63136752616977        4.90034440152270
N           -5.33760638816162        4.75085567521832        4.66045502212276
H           -4.78341987471504        2.07196231799327        6.14973217872757
H           -6.31558513798860        1.85729648753670        5.27207146780865
H           -4.76685799298368        1.70031238963039        4.41145731570733
C            5.14208420467156        2.16919149623800        5.45990923209945
C            4.81766756190367        2.89545406329249        6.65091841064188
N            4.55549492634741        3.47204061229145        7.60497464823571
H            4.24852481616326        1.67166483888140        5.08566495162881
H            5.51784373464490        2.85824760063621        4.70464959981437
H            5.90355847753594        1.42392984523809        5.68633774060605
C           -3.69869203098854       -6.55976373599518        2.00762286802926
C           -2.33243101319319       -6.45062460348103        2.42359562928836
N           -1.24057925628692       -6.36348702565462        2.75698589106128
H           -4.31937837896402       -6.81922066851844        2.86418508160186
H           -4.02953420328423       -5.60708054151153        1.59678974757079
H           -3.78647928855538       -7.33300296321904        1.24561186438300
C           -3.87568721663499        8.34324870241818        1.51870248876541
C           -2.58087806613316        7.81265196666520        1.21436972220572
N           -1.54406493747130        7.39227379386124        0.97036431085721
H           -3.93133619012785        8.57953470883645        2.58046014858310
H           -4.04514317377491        9.24575477003319        0.93287892201296
H           -4.63614969853599        7.60336347308722        1.27327111372129
C            6.80698540009096       -1.57787219511539        1.14865414678181
C            8.22194845989133       -1.66935657024381        0.94145682186588
N            9.35259394168837       -1.74250772594274        0.77544167657289
H            6.60609775898961       -1.35627795306352        2.19576848573520
H            6.40036475631604       -0.78274110395718        0.52532953547002
H            6.33948579976211       -2.52501104384909        0.88269781718313
C           -9.20073536528868       -4.60811329408771        2.45112011511175
C           -8.72922471301316       -5.09340447521806        1.18850649405224
N           -8.35138637806383       -5.48372376834689        0.18060622534013
H           -9.40974774921983       -5.45132800246518        3.10846693468959
H           -8.43850564002941       -3.97514323971396        2.90384017222633
H          -10.11164969390311       -4.02996230968109        2.30044123973103
C            3.13566376001906        6.57186715342025       -0.72366967926206
C            3.77857586505962        6.04218294216078        0.44156589420700
N            4.29037924636424        5.62020766596900        1.37529328193690
H            2.29218551067402        5.93742648982542       -0.99181162023854
H            2.77802075930863        7.57905565921433       -0.51282706776900
H            3.84532217242587        6.60045900251278       -1.54987982642830
C            1.80356558608091       -7.04297231884195       -1.48076419989343
C            3.03093882897772       -6.63202203732745       -0.86802357427600
N            4.01048344817655       -6.29958265678245       -0.37681308242549
H            1.30756230134787       -7.77721711537956       -0.84737079103817
H            1.15374546408851       -6.17809837850084       -1.60597601903639
H            2.01199420051923       -7.48349521866479       -2.45466823031991
C           -8.89767513396354        7.27917314812275       -2.88813888675175
C           -7.56420157303980        7.80309528558750       -2.85215854635897
N           -6.49926873264597        8.22193913280124       -2.82047400425448
H           -9.42303464807688        7.56228538024229       -1.97677460187825
H           -9.42372352641859        7.68436396637058       -3.75160253400407
H           -8.85756263010003        6.19319780398632       -2.96290778712685
C            8.00232722125670        3.53621683987120       -5.79529559379075
C            8.80587027664005        4.71892281863482       -5.88401385072661
N            9.44742208190439        5.66454105623771       -5.95761052673031
H            8.36798863537641        2.90669511529468       -4.98521437515782
H            6.96706131761231        3.81254797190397       -5.60016099319510
H            8.05964452803376        2.98537975454645       -6.73309247883056
C           -5.30289198292480       -7.20189036967344       -4.10454941727258
C           -3.96538518691799       -7.31204519974520       -3.60446377073375
N           -2.89623613791388       -7.40369462232486       -3.20480937300417
H           -5.96685495910706       -6.89224640145939       -3.29856136816039
H           -5.33208362709642       -6.46008827843482       -4.90156553547340
H           -5.62624211719950       -8.16711897188185       -4.49207055401748
C           -2.04622392349756        6.74404829582068       -4.56553152625361
C           -2.51677852234863        5.42882412890620       -4.87835526267967
N           -2.89555281093951        4.37733973781597       -5.12868058755243
H           -2.13608271513079        6.91489490828208       -3.49377470752926
H           -1.00249109570200        6.83627383601471       -4.86259987720015
H           -2.64480860821170        7.48002542946747       -5.10048272443963
C            5.46246216860089       -3.25833539220926       -4.42105462230467
C            5.84586049891120       -2.02679144852698       -5.03865773405560
N            6.15025807425958       -1.04009326039712       -5.53500848672050
H            5.50717584448489       -3.15354579021472       -3.33832602740747
H            4.44474625979556       -3.51053949253535       -4.72071593131557
H            6.14053662141054       -4.04982797942804       -4.73682729266560
C           -5.46176947703518        0.01591408966181       -5.26717141999972
C           -4.79810088462971       -1.19897435976836       -5.63354589953911
N           -4.26988740533763       -2.17124145635321       -5.92824451614658
H           -5.00985254874105        0.41838037642159       -4.36160298225176
H           -5.36103396153096        0.74165169080797       -6.07304552269132
H           -6.51697671429718       -0.18659098736049       -5.08832781121741
C            1.45706095282727        1.79857971029322       -5.94448077191589
C            1.99423471656685        3.05147497121294       -5.50506851578289
N            2.42125086831448        4.05315053076638       -5.15098519999909
H            0.65884250952186        1.49097629002824       -5.27027766809986
H            1.05854123887184        1.90985369845028       -6.95211762734016
H            2.24525409928782        1.04662075959501       -5.94424414182415
C            0.19182826485689       -4.46654005509495       -6.71004090538263
C            1.40376490994331       -4.19761141388075       -6.00044302352206
N            2.37529418795282       -3.98351223797790       -5.43324043546466
H           -0.56934909299552       -4.81144514362164       -6.01149544159467
H           -0.15299301031255       -3.55656326444958       -7.19938803898932
H            0.37379125978718       -5.23608071106089       -7.45923623790711
