 Entering Gaussian System, Link 0=g16
 Input=Ferrocene_NH4_0_gas_secondrun.com
 Output=Ferrocene_NH4_0_gas_secondrun.log
 Initial command:
 /gpfs/fs1/soft/improv/software/custom-built/gaussian/g16/l1.exe "/scratch/Gau-1732701.inp" -scrdir="/scratch/"
 Default CPUs for threads: 0-127
 Default linda workers: i618.lcrc.anl.gov
 Default is to use 128 SMP processors on each worker.
 Entering Link 1 = /gpfs/fs1/soft/improv/software/custom-built/gaussian/g16/l1.exe PID=   1732702.
  
 Copyright (c) 1988-2021, Gaussian, Inc.  All Rights Reserved.
  
 This is part of the Gaussian(R) 16 program.  It is based on
 the Gaussian(R) 09 system (copyright 2009, Gaussian, Inc.),
 the Gaussian(R) 03 system (copyright 2003, Gaussian, Inc.),
 the Gaussian(R) 98 system (copyright 1998, Gaussian, Inc.),
 the Gaussian(R) 94 system (copyright 1995, Gaussian, Inc.),
 the Gaussian 92(TM) system (copyright 1992, Gaussian, Inc.),
 the Gaussian 90(TM) system (copyright 1990, Gaussian, Inc.),
 the Gaussian 88(TM) system (copyright 1988, Gaussian, Inc.),
 the Gaussian 86(TM) system (copyright 1986, Carnegie Mellon
 University), and the Gaussian 82(TM) system (copyright 1983,
 Carnegie Mellon University). Gaussian is a federally registered
 trademark of Gaussian, Inc.
  
 This software contains proprietary and confidential information,
 including trade secrets, belonging to Gaussian, Inc.
  
 This software is provided under written license and may be
 used, copied, transmitted, or stored only in accord with that
 written license.
  
 The following legend is applicable only to US Government
 contracts under FAR:
  
                    RESTRICTED RIGHTS LEGEND
  
 Use, reproduction and disclosure by the US Government is
 subject to restrictions as set forth in subparagraphs (a)
 and (c) of the Commercial Computer Software - Restricted
 Rights clause in FAR 52.227-19.
  
 Gaussian, Inc.
 340 Quinnipiac St., Bldg. 40, Wallingford CT 06492
  
  
 ---------------------------------------------------------------
 Warning -- This program may not be used in any manner that
 competes with the business of Gaussian, Inc. or will provide
 assistance to any competitor of Gaussian, Inc.  The licensee
 of this program is prohibited from giving any competitor of
 Gaussian, Inc. access to this program.  By using this program,
 the user acknowledges that Gaussian, Inc. is engaged in the
 business of creating and licensing software in the field of
 computational chemistry and represents and warrants to the
 licensee that it is not a competitor of Gaussian, Inc. and that
 it will not use this program in any manner prohibited above.
 ---------------------------------------------------------------
  

 Cite this work as:
 Gaussian 16, Revision C.02,
 M. J. Frisch, G. W. Trucks, H. B. Schlegel, G. E. Scuseria, 
 M. A. Robb, J. R. Cheeseman, G. Scalmani, V. Barone, 
 G. A. Petersson, H. Nakatsuji, X. Li, M. Caricato, A. V. Marenich, 
 J. Bloino, B. G. Janesko, R. Gomperts, B. Mennucci, H. P. Hratchian, 
 J. V. Ortiz, A. F. Izmaylov, J. L. Sonnenberg, D. Williams-Young, 
 F. Ding, F. Lipparini, F. Egidi, J. Goings, B. Peng, A. Petrone, 
 T. Henderson, D. Ranasinghe, V. G. Zakrzewski, J. Gao, N. Rega, 
 G. Zheng, W. Liang, M. Hada, M. Ehara, K. Toyota, R. Fukuda, 
 J. Hasegawa, M. Ishida, T. Nakajima, Y. Honda, O. Kitao, H. Nakai, 
 T. Vreven, K. Throssell, J. A. Montgomery, Jr., J. E. Peralta, 
 F. Ogliaro, M. J. Bearpark, J. J. Heyd, E. N. Brothers, K. N. Kudin, 
 V. N. Staroverov, T. A. Keith, R. Kobayashi, J. Normand, 
 K. Raghavachari, A. P. Rendell, J. C. Burant, S. S. Iyengar, 
 J. Tomasi, M. Cossi, J. M. Millam, M. Klene, C. Adamo, R. Cammi, 
 J. W. Ochterski, R. L. Martin, K. Morokuma, O. Farkas, 
 J. B. Foresman, and D. J. Fox, Gaussian, Inc., Wallingford CT, 2019.
 
 ******************************************
 Gaussian 16:  ES64L-G16RevC.02  7-Dec-2021
                 5-Feb-2025 
 ******************************************
 %chk=Ferrocene_NH4_0_gas
 SetSPE:  set environment variable "OMP_PROC_BIND" = "true"
 SetSPE:  set environment variable "OMP_PLACES" = "{0},{1},{2},{3},{4},{5},{6},{7},{8},{9},{10},{11},{12},{13},{14},{15},{16},{17},{18},{19},{20},{21},{22},{23},{24},{25},{26},{27},{28},{29},{30},{31},{32},{33},{34},{35},{36},{37},{38},{39},{40},{41},{42},{43},{44},{45},{46},{47},{48},{49},{50},{51},{52},{53},{54},{55},{56},{57},{58},{59},{60},{61},{62},{63},{64},{65},{66},{67},{68},{69},{70},{71},{72},{73},{74},{75},{76},{77},{78},{79},{80},{81},{82},{83},{84},{85},{86},{87},{88},{89},{90},{91},{92},{93},{94},{95},{96},{97},{98},{99},{100},{101},{102},{103},{104},{105},{106},{107},{108},{109},{110},{111},{112},{113},{114},{115},{116},{117},{118},{119},{120},{121},{122},{123},{124},{125},{126},{127}"
 SetLPE:    new flags="-opt 'Tsnet.Node.lindarsharg: ssh'  -nodelist 'i618.lcrc.anl.gov' -env GAUSS_MDEF=13421772800 -env GAUSS_EXEDIR="/gpfs/fs1/soft/improv/software/custom-built/gaussian/g16/bsd:/gpfs/fs1/soft/improv/software/custom-built/gaussian/g16" -env "OMP_PROC_BIND=true" -env "OMP_PLACES={0},{1},{2},{3},{4},{5},{6},{7},{8},{9},{10},{11},{12},{13},{14},{15},{16},{17},{18},{19},{20},{21},{22},{23},{24},{25},{26},{27},{28},{29},{30},{31},{32},{33},{34},{35},{36},{37},{38},{39},{40},{41},{42},{43},{44},{45},{46},{47},{48},{49},{50},{51},{52},{53},{54},{55},{56},{57},{58},{59},{60},{61},{62},{63},{64},{65},{66},{67},{68},{69},{70},{71},{72},{73},{74},{75},{76},{77},{78},{79},{80},{81},{82},{83},{84},{85},{86},{87},{88},{89},{90},{91},{92},{93},{94},{95},{96},{97},{98},{99},{100},{101},{102},{103},{104},{105},{106},{107},{108},{109},{110},{111},{112},{113},{114},{115},{116},{117},{118},{119},{120},{121},{122},{123},{124},{125},{126},{127}" -env GAUSS_ADEF="0,1,2,3,4,5,6,7,8,9,10,11,12,13,14,15,16,17,18,19,20,21,22,23,24,25,26,27,28,29,30,31,32,33,34,35,36,37,38,39,40,41,42,43,44,45,46,47,48,49,50,51,52,53,54,55,56,57,58,59,60,61,62,63,64,65,66,67,68,69,70,71,72,73,74,75,76,77,78,79,80,81,82,83,84,85,86,87,88,89,90,91,92,93,94,95,96,97,98,99,100,101,102,103,104,105,106,107,108,109,110,111,112,113,114,115,116,117,118,119,120,121,122,123,124,125,126,127""
 Will use up to    1 processors via Linda.
 ----------------------------------------------------------------------
 #p ub3lyp geom=allcheck guess=read chkbasis opt=(calcfc,cartesian) fre
 q scf=(novaracc,maxcycles=1000,fermi,xqc) empiricaldispersion=gd3
 ----------------------------------------------------------------------
 1/10=4,18=10,26=3,29=7,38=1/1,3;
 2/12=2,29=2,40=1/2;
 3/5=7,6=2,11=2,14=-4,25=1,30=1,67=1,71=2,74=-5,116=2,124=31,140=1/1,2,3;
 4/5=1/1;
 5/5=2,7=1000,8=3,13=1,22=13,38=6/2,8;
 8/6=4,10=90,11=11/1;
 11/6=1,8=1,9=11,15=111,16=1/1,2,10;
 10/6=1,13=1/2;
 6/7=2,8=2,9=2,10=2,28=1/1;
 7/7=1,10=1,25=1/1,2,3,16;
 1/10=4,18=10,26=3/3(2);
 2/29=1/2;
 99/12=1/99;
 2/29=1/2;
 3/5=7,6=1,11=2,14=-2,25=1,30=1,71=1,74=-5,82=7,116=2,124=31/1,2,3;
 4/5=5,16=3,69=1/1;
 5/5=2,7=1000,8=3,13=1,22=13,38=1/2,8;
 7/7=1/1,2,3,16;
 1/18=10,26=3/3(-5);
 2/29=1/2;
 6/7=2,8=2,9=2,10=2,19=2,28=1/1;
 99/9=1,12=1/99;
 Leave Link    1 at Wed Feb  5 18:35:39 2025, MaxMem=           0 cpu:               4.8 elap:               0.2
 (Enter /gpfs/fs1/soft/improv/software/custom-built/gaussian/g16/l101.exe)
 Structure from the checkpoint file:  "Ferrocene_NH4_0_gas.chk"
 -------------------
 Title Card Required
 -------------------
 Charge =  0 Multiplicity = 1
 No Z-Matrix found in chk file; cartesian coordinates used.
  C                                                -3.483191129777      0.939633922618      1.137327413327
  H                                                -4.482667571006      1.263541216723      1.365705950790
  C                                                -2.615798434353      1.504677051702      0.169742888901
  H                                                -2.844790851720      2.354186715657     -0.481113086417
  C                                                -1.398943401371      0.753816162800      0.154930552404
  C                                                -2.797968230318     -0.166851414534      1.742143999536
  H                                                -3.208109386131     -0.819928279311      2.496489024806
  C                                                -1.520289393309     -0.285144337059      1.140589500385
  H                                                -0.779977916004     -1.058236068749      1.322359344716
  C                                                -4.646111947642     -1.200431160322     -1.140978510133
  H                                                -5.664425052539     -0.933963497656     -0.864826618713
  C                                                -3.854379532857     -0.547432653236     -2.132444577255
  H                                                -4.156051660784      0.301438414635     -2.731335795411
  C                                                -2.579767675254     -1.199427065204     -2.161836229996
  H                                                -1.737217050976     -0.938498397914     -2.782585675008
  C                                                -3.880074805283     -2.248261827455     -0.577237993232
  H                                                -4.185907839692     -2.916458088006      0.214367751015
  C                                                -2.594606929154     -2.248411616180     -1.201245425315
  H                                                -1.741536224360     -2.882166266623     -0.971760105887
  Fe                                               -2.951628478396     -0.443006211162     -0.288521696900
  C                                                -0.260655600483      0.908343106008     -0.786561761142
  H                                                -0.582367906634      1.398000854819     -1.713950032681
  H                                                 0.182226970963     -0.057374449967     -1.034489683033
  N                                                 0.899795582252      1.775863158966     -0.251143328383
  C                                                 1.442993157496      1.195778898105      1.025016751767
  H                                                 0.665791228841      1.240420275477      1.780097308272
  H                                                 1.729586929469      0.162802288448      0.825148859639
  H                                                 2.305314893269      1.786750668512      1.326894320214
  C                                                 0.423488532512      3.170703513590     -0.008089398205
  H                                                 1.250613957260      3.770442141021      0.386081091942
  H                                                 0.070247157604      3.598299801733     -0.953300778035
  H                                                -0.399010530973      3.139814841980      0.711503002743
  C                                                 1.979955264082      1.781893158049     -1.296156202799
  H                                                 1.561615786739      2.162158874104     -2.230795911907
  H                                                 2.793295808783      2.432001993549     -0.961093249391
  H                                                 2.330424960286      0.754851102469     -1.426200143546
  P                                                 1.462387536996     -2.637184450768     -1.151757308996
  F                                                 0.755495811196     -4.003838432218     -1.590689327377
  F                                                 0.408215884845     -1.783863414391     -2.077943034086
  F                                                 2.486070876595     -2.687562906503     -2.382976606742
  F                                                 2.135488915446     -1.175279458634     -0.684562306806
  F                                                 2.492290183948     -3.392295211052     -0.199259822279
  F                                                 0.410080387931     -2.473595385686      0.100486060244
 Recover connectivity data from disk.
 ITRead=  0  0  0  0  0  0  0  0  0  0  0  0  0  0  0  0  0  0  0  0
 ITRead=  0  0  0  0  0  0  0  0  0  0  0  0  0  0  0  0  0  0  0  0
 ITRead=  0  0  0
 MicOpt= -1 -1 -1 -1 -1 -1 -1 -1 -1 -1 -1 -1 -1 -1 -1 -1 -1 -1 -1 -1
 MicOpt= -1 -1 -1 -1 -1 -1 -1 -1 -1 -1 -1 -1 -1 -1 -1 -1 -1 -1 -1 -1
 MicOpt= -1 -1 -1
 NAtoms=     43 NQM=       43 NQMF=       0 NMMI=      0 NMMIF=      0
                NMic=       0 NMicF=      0.
                    Isotopes and Nuclear Properties:
 (Nuclear quadrupole moments (NQMom) in fm**2, nuclear magnetic moments (NMagM)
  in nuclear magnetons)

  Atom         1           2           3           4           5           6           7           8           9          10
 IAtWgt=          12           1          12           1          12          12           1          12           1          12
 AtmWgt=  12.0000000   1.0078250  12.0000000   1.0078250  12.0000000  12.0000000   1.0078250  12.0000000   1.0078250  12.0000000
 NucSpn=           0           1           0           1           0           0           1           0           1           0
 AtZEff=   3.6000000   1.0000000   3.6000000   1.0000000   3.6000000   3.6000000   1.0000000   3.6000000   1.0000000   3.6000000
 NQMom=    0.0000000   0.0000000   0.0000000   0.0000000   0.0000000   0.0000000   0.0000000   0.0000000   0.0000000   0.0000000
 NMagM=    0.0000000   2.7928460   0.0000000   2.7928460   0.0000000   0.0000000   2.7928460   0.0000000   2.7928460   0.0000000
 AtZNuc=   6.0000000   1.0000000   6.0000000   1.0000000   6.0000000   6.0000000   1.0000000   6.0000000   1.0000000   6.0000000

  Atom        11          12          13          14          15          16          17          18          19          20
 IAtWgt=           1          12           1          12           1          12           1          12           1          56
 AtmWgt=   1.0078250  12.0000000   1.0078250  12.0000000   1.0078250  12.0000000   1.0078250  12.0000000   1.0078250  55.9349393
 NucSpn=           1           0           1           0           1           0           1           0           1           0
 AtZEff=   1.0000000   3.6000000   1.0000000   3.6000000   1.0000000   3.6000000   1.0000000   3.6000000   1.0000000  25.2200000
 NQMom=    0.0000000   0.0000000   0.0000000   0.0000000   0.0000000   0.0000000   0.0000000   0.0000000   0.0000000   0.0000000
 NMagM=    2.7928460   0.0000000   2.7928460   0.0000000   2.7928460   0.0000000   2.7928460   0.0000000   2.7928460   0.0000000
 AtZNuc=   1.0000000   6.0000000   1.0000000   6.0000000   1.0000000   6.0000000   1.0000000   6.0000000   1.0000000  26.0000000

  Atom        21          22          23          24          25          26          27          28          29          30
 IAtWgt=          12           1           1          14          12           1           1           1          12           1
 AtmWgt=  12.0000000   1.0078250   1.0078250  14.0030740  12.0000000   1.0078250   1.0078250   1.0078250  12.0000000   1.0078250
 NucSpn=           0           1           1           2           0           1           1           1           0           1
 AtZEff=   3.6000000   1.0000000   1.0000000   4.5500000   3.6000000   1.0000000   1.0000000   1.0000000   3.6000000   1.0000000
 NQMom=    0.0000000   0.0000000   0.0000000   2.0440000   0.0000000   0.0000000   0.0000000   0.0000000   0.0000000   0.0000000
 NMagM=    0.0000000   2.7928460   2.7928460   0.4037610   0.0000000   2.7928460   2.7928460   2.7928460   0.0000000   2.7928460
 AtZNuc=   6.0000000   1.0000000   1.0000000   7.0000000   6.0000000   1.0000000   1.0000000   1.0000000   6.0000000   1.0000000

  Atom        31          32          33          34          35          36          37          38          39          40
 IAtWgt=           1           1          12           1           1           1          31          19          19          19
 AtmWgt=   1.0078250   1.0078250  12.0000000   1.0078250   1.0078250   1.0078250  30.9737634  18.9984032  18.9984032  18.9984032
 NucSpn=           1           1           0           1           1           1           1           1           1           1
 AtZEff=   1.0000000   1.0000000   3.6000000   1.0000000   1.0000000   1.0000000  12.9400000   6.7500000   6.7500000   6.7500000
 NQMom=    0.0000000   0.0000000   0.0000000   0.0000000   0.0000000   0.0000000   0.0000000   0.0000000   0.0000000   0.0000000
 NMagM=    2.7928460   2.7928460   0.0000000   2.7928460   2.7928460   2.7928460   1.1316000   2.6288670   2.6288670   2.6288670
 AtZNuc=   1.0000000   1.0000000   6.0000000   1.0000000   1.0000000   1.0000000  15.0000000   9.0000000   9.0000000   9.0000000

  Atom        41          42          43
 IAtWgt=          19          19          19
 AtmWgt=  18.9984032  18.9984032  18.9984032
 NucSpn=           1           1           1
 AtZEff=   6.7500000   6.7500000   6.7500000
 NQMom=    0.0000000   0.0000000   0.0000000
 NMagM=    2.6288670   2.6288670   2.6288670
 AtZNuc=   9.0000000   9.0000000   9.0000000
 Leave Link  101 at Wed Feb  5 18:35:39 2025, MaxMem= 13421772800 cpu:               0.4 elap:               0.1
 (Enter /gpfs/fs1/soft/improv/software/custom-built/gaussian/g16/l103.exe)

 GradGradGradGradGradGradGradGradGradGradGradGradGradGradGradGradGradGrad
 Berny optimization.
 Initialization pass.
 No Z-matrix variables, so optimization will use Cartesian coordinates.
 Trust Radius=3.00D-01 FncErr=1.00D-07 GrdErr=1.00D-06 EigMax=2.50D+02 EigMin=1.00D-04
 Number of steps in this run=    139 maximum allowed number of steps=    258.
 GradGradGradGradGradGradGradGradGradGradGradGradGradGradGradGradGradGrad

 Leave Link  103 at Wed Feb  5 18:35:40 2025, MaxMem= 13421772800 cpu:               0.4 elap:               0.1
 (Enter /gpfs/fs1/soft/improv/software/custom-built/gaussian/g16/l202.exe)
                          Input orientation:                          
 ---------------------------------------------------------------------
 Center     Atomic      Atomic             Coordinates (Angstroms)
 Number     Number       Type             X           Y           Z
 ---------------------------------------------------------------------
      1          6           0       -3.483191    0.939634    1.137327
      2          1           0       -4.482668    1.263541    1.365706
      3          6           0       -2.615798    1.504677    0.169743
      4          1           0       -2.844791    2.354187   -0.481113
      5          6           0       -1.398943    0.753816    0.154931
      6          6           0       -2.797968   -0.166851    1.742144
      7          1           0       -3.208109   -0.819928    2.496489
      8          6           0       -1.520289   -0.285144    1.140590
      9          1           0       -0.779978   -1.058236    1.322359
     10          6           0       -4.646112   -1.200431   -1.140979
     11          1           0       -5.664425   -0.933963   -0.864827
     12          6           0       -3.854380   -0.547433   -2.132445
     13          1           0       -4.156052    0.301438   -2.731336
     14          6           0       -2.579768   -1.199427   -2.161836
     15          1           0       -1.737217   -0.938498   -2.782586
     16          6           0       -3.880075   -2.248262   -0.577238
     17          1           0       -4.185908   -2.916458    0.214368
     18          6           0       -2.594607   -2.248412   -1.201245
     19          1           0       -1.741536   -2.882166   -0.971760
     20         26           0       -2.951628   -0.443006   -0.288522
     21          6           0       -0.260656    0.908343   -0.786562
     22          1           0       -0.582368    1.398001   -1.713950
     23          1           0        0.182227   -0.057374   -1.034490
     24          7           0        0.899796    1.775863   -0.251143
     25          6           0        1.442993    1.195779    1.025017
     26          1           0        0.665791    1.240420    1.780097
     27          1           0        1.729587    0.162802    0.825149
     28          1           0        2.305315    1.786751    1.326894
     29          6           0        0.423489    3.170704   -0.008089
     30          1           0        1.250614    3.770442    0.386081
     31          1           0        0.070247    3.598300   -0.953301
     32          1           0       -0.399011    3.139815    0.711503
     33          6           0        1.979955    1.781893   -1.296156
     34          1           0        1.561616    2.162159   -2.230796
     35          1           0        2.793296    2.432002   -0.961093
     36          1           0        2.330425    0.754851   -1.426200
     37         15           0        1.462388   -2.637184   -1.151757
     38          9           0        0.755496   -4.003838   -1.590689
     39          9           0        0.408216   -1.783863   -2.077943
     40          9           0        2.486071   -2.687563   -2.382977
     41          9           0        2.135489   -1.175279   -0.684562
     42          9           0        2.492290   -3.392295   -0.199260
     43          9           0        0.410080   -2.473595    0.100486
 ---------------------------------------------------------------------
                    Distance matrix (angstroms):
                    1          2          3          4          5
     1  C    0.000000
     2  H    1.075186   0.000000
     3  C    1.416991   2.230174   0.000000
     4  H    2.242290   2.698683   1.094403   0.000000
     5  C    2.311649   3.351888   1.429947   2.248602   0.000000
     6  C    1.435146   2.241861   2.302094   3.361651   2.307411
     7  H    2.240324   2.691471   3.341911   4.367278   3.351514
     8  C    2.313671   3.350342   2.312173   3.369019   1.437250
     9  H    3.366464   4.370634   3.356678   4.377282   2.242664
    10  C    3.335107   3.518713   3.627365   4.039244   4.005317
    11  H    3.503822   3.346768   4.038741   4.348506   4.699238
    12  C    3.611171   3.988913   3.323448   3.487916   3.599236
    13  H    3.978265   4.221146   3.498060   3.316125   4.017067
    14  C    4.034382   4.704338   3.570678   3.939954   3.252217
    15  H    4.684178   5.440110   3.931572   4.167166   3.406957
    16  C    3.641419   4.058437   4.030003   4.718430   3.962897
    17  H    4.026799   4.345807   4.691873   5.482881   4.608863
    18  C    4.052424   4.742133   3.995714   4.665307   3.504596
    19  H    4.699763   5.492216   4.616466   5.373760   3.821933
    20  Fe   2.056039   2.827164   2.028856   2.805850   2.009941
    21  C    3.753274   4.752242   2.610906   2.976830   1.485256
    22  H    4.093245   4.971388   2.773900   2.748224   2.138804
    23  H    4.375626   5.409898   3.423321   3.909564   2.138422
    24  N    4.673083   5.643366   3.551069   3.795955   2.548269
    25  C    4.934118   5.935833   4.159411   4.689928   3.004827
    26  H    4.209237   5.165160   3.664956   4.321774   2.672280
    27  H    5.279581   6.332135   4.594840   5.237692   3.253643
    28  H    5.853234   6.808227   5.063193   5.487665   4.020197
    29  C    4.642391   5.440124   3.470524   3.401779   3.031366
    30  H    5.566575   6.333619   4.486607   4.419292   4.021644
    31  H    4.905727   5.617644   3.585990   3.204407   3.387888
    32  H    3.812387   4.541436   2.807370   2.832205   2.646248
    33  C    6.039637   7.008544   4.831838   4.926458   3.818318
    34  H    6.187802   7.090536   4.862680   4.744964   4.054631
    35  H    6.784159   7.727803   5.603305   5.659016   4.651525
    36  H    6.356410   7.380497   5.251133   5.498538   4.050699
    37  P    6.518611   7.543008   5.960955   6.626865   4.625314
    38  F    7.060203   7.995243   6.693914   7.390379   5.506730
    39  F    5.735717   6.713131   5.001125   5.500489   3.832932
    40  F    7.821840   8.844612   7.079571   7.579869   5.777318
    41  F    6.273891   7.345164   5.521479   6.107513   4.113195
    42  F    7.500563   8.530883   7.085836   7.847670   5.697139
    43  F    5.280411   6.285376   4.998739   5.851489   3.700232
                    6          7          8          9         10
     6  C    0.000000
     7  H    1.078778   0.000000
     8  C    1.417154   2.230066   0.000000
     9  H    2.245678   2.707618   1.085713   0.000000
    10  C    3.577194   3.929861   3.976691   4.586420   0.000000
    11  H    3.949852   4.164725   4.649357   5.353228   1.088222
    12  C    4.034016   4.681767   4.028588   4.652799   1.426973
    13  H    4.698479   5.430121   4.720501   5.447847   2.241653
    14  C    4.044117   4.715806   3.586701   3.924130   2.304762
    15  H    4.711031   5.481443   3.983118   4.216778   3.350396
    16  C    3.298902   3.455354   3.517577   3.825602   1.415120
    17  H    3.438141   3.249555   3.858396   4.034971   2.234614
    18  C    3.610788   4.011258   3.239254   3.328360   2.304467
    19  H    3.981741   4.293299   3.354921   3.084526   3.360570
    20  Fe   2.055110   2.822080   2.028795   2.772997   2.042462
    21  C    3.740100   4.738442   2.593261   2.929962   4.879013
    22  H    4.393431   5.435212   3.443990   3.910412   4.857382
    23  H    4.074708   4.954158   2.771536   2.735379   4.962940
    24  N    4.628260   5.582338   3.470084   3.650982   6.356668
    25  C    4.511850   5.278358   3.314745   3.179716   6.892790
    26  H    3.738915   4.445825   2.741399   2.753833   6.535041
    27  H    4.631232   5.304713   3.295733   2.834796   6.809816
    28  H    5.480191   6.209716   4.354619   4.196785   7.958391
    29  C    4.957860   5.948660   4.128029   4.593730   6.789043
    30  H    5.807943   6.738363   4.969403   5.321283   7.862116
    31  H    5.446875   6.493798   4.689917   5.252127   6.731054
    32  H    4.213224   5.172695   3.629287   4.259332   6.348803
    33  C    5.988107   6.933228   4.739418   4.747651   7.267951
    34  H    6.341491   7.347812   5.182053   5.336564   7.143570
    35  H    6.732293   7.651587   5.514252   5.492195   8.280804
    36  H    6.098226   6.967265   4.743206   4.529511   7.250969
    37  P    5.712079   6.198844   4.436587   3.693580   6.275201
    38  F    6.201399   6.523226   5.144683   4.418156   6.102352
    39  F    5.242844   5.910364   4.040327   3.674288   5.173444
    40  F    7.161821   7.727932   5.851329   5.201086   7.390680
    41  F    5.589708   6.228917   4.181894   3.541381   6.796989
    42  F    6.493025   6.810190   5.248845   4.297778   7.526479
    43  F    4.278748   4.644001   3.097977   2.216406   5.359782
                   11         12         13         14         15
    11  H    0.000000
    12  C    2.243329   0.000000
    13  H    2.699123   1.081785   0.000000
    14  C    3.356757   1.431990   2.249800   0.000000
    15  H    4.370444   2.248998   2.718608   1.078566   0.000000
    16  C    2.234724   2.304810   3.349220   2.302565   3.342286
    17  H    2.698325   3.351078   4.362673   3.342787   4.346279
    18  C    3.356298   2.312464   3.358723   1.422436   2.225225
    19  H    4.381322   3.355932   4.365928   2.224977   2.656493
    20  Fe   2.816457   2.055703   2.823504   2.054206   2.817918
    21  C    5.709724   4.104331   4.395974   3.422332   3.094377
    22  H    5.655650   3.829610   3.874111   3.307089   2.816893
    23  H    5.914434   4.211871   4.672119   3.194340   2.741621
    24  N    7.128026   5.615975   5.821243   4.960893   4.552998
    25  C    7.656546   6.408627   6.801421   5.663537   5.400622
    26  H    7.196889   6.239900   6.669699   5.659094   5.598233
    27  H    7.663571   6.358653   6.878121   5.417406   5.123216
    28  H    8.701878   7.440247   7.773329   6.704665   6.376274
    29  C    7.392224   6.052898   6.051524   5.723305   5.408514
    30  H    8.456593   7.144786   7.140330   6.772245   6.414180
    31  H    7.309973   5.829251   5.647327   5.612604   5.214954
    32  H    6.841423   5.798569   5.833085   5.642765   5.534627
    33  C    8.123944   6.337555   6.473181   5.516226   4.840183
    34  H    7.979192   6.056778   6.033618   5.334423   4.560794
    35  H    9.103408   7.378393   7.481075   6.595367   5.933267
    36  H    8.190535   6.359759   6.631994   5.335762   4.610090
    37  P    7.333127   5.796277   6.534327   4.407542   3.972733
    38  F    7.153069   5.787157   6.630217   4.394874   4.126808
    39  F    6.250676   4.438632   5.060429   3.045759   2.411233
    40  F    8.474106   6.696584   7.292001   5.284522   4.588581
    41  F    7.805728   6.194278   6.778898   4.941312   4.410852
    42  F    8.545079   7.218772   8.015954   5.863970   5.530228
    43  F    6.340498   5.184757   6.047280   3.959899   3.908902
                   16         17         18         19         20
    16  C    0.000000
    17  H    1.080120   0.000000
    18  C    1.428920   2.232148   0.000000
    19  H    2.265134   2.717173   1.087216   0.000000
    20  Fe   2.050443   2.809681   2.054268   2.807248   0.000000
    21  C    4.807095   5.571227   3.947707   4.073729   3.052134
    22  H    5.046010   5.942934   4.196224   4.496037   3.321829
    23  H    4.638034   5.367924   3.541081   3.418223   3.244415
    24  N    6.256763   6.935341   5.413717   5.403070   4.445025
    25  C    6.539395   7.017989   5.755077   5.545988   4.870698
    26  H    6.196195   6.578004   5.629436   5.510323   4.494311
    27  H    6.264840   6.696863   5.349662   4.954736   4.849850
    28  H    7.626670   8.092828   6.832515   6.592390   5.934378
    29  C    6.943326   7.638688   6.316592   6.500248   4.952672
    30  H    7.967230   8.619738   7.316552   7.419831   5.988913
    31  H    7.066028   7.868950   6.430160   6.728993   5.089776
    32  H    6.542938   7.160040   6.124723   6.395311   4.511376
    33  C    7.148353   7.897725   6.097457   5.975632   5.503274
    34  H    7.197087   8.050168   6.147137   6.159643   5.561357
    35  H    8.160030   8.871134   7.140969   6.986072   6.459271
    36  H    6.950520   7.657191   5.772879   5.478620   5.534371
    37  P    5.387322   5.817863   4.075880   3.218314   5.004311
    38  F    5.059412   5.371973   3.802154   2.806491   5.302635
    39  F    4.566970   5.257702   3.162491   2.655437   4.035899
    40  F    6.631854   7.163371   5.234752   4.461173   6.244466
    41  F    6.111450   6.618144   4.877743   4.245853   5.154788
    42  F    6.485269   6.707894   5.309328   4.333852   6.192134
    43  F    4.349197   4.618680   3.282279   2.438462   3.946607
                   21         22         23         24         25
    21  C    0.000000
    22  H    1.096956   0.000000
    23  H    1.090974   1.778873   0.000000
    24  N    1.544639   2.116457   2.118796   0.000000
    25  C    2.503369   3.412465   2.720568   1.503378   0.000000
    26  H    2.748876   3.713637   3.136878   2.113621   1.084519
    27  H    2.667303   3.649366   2.429209   2.109247   1.090470
    28  H    3.438386   4.211481   3.672116   2.113245   1.088107
    29  C    2.488443   2.657853   3.395908   1.493828   2.450923
    30  H    3.442476   3.660387   4.220385   2.123081   2.659725
    31  H    2.715357   2.417811   3.658290   2.121898   3.401511
    32  H    2.691246   2.991715   3.688949   2.115171   2.696395
    33  C    2.458274   2.624390   2.585189   1.502942   2.453508
    34  H    2.641693   2.334038   2.874055   2.122794   3.398276
    35  H    3.417399   3.609856   3.608332   2.126003   2.701147
    36  H    2.673274   2.996799   2.329786   2.114220   2.643940
    37  P    3.958915   4.558487   2.882357   4.539009   4.407985
    38  F    5.080228   5.566412   4.026484   5.934657   5.860938
    39  F    3.059907   3.352314   2.029934   4.031191   4.424635
    40  F    4.798290   5.153130   3.747533   5.194531   5.270937
    41  F    3.177010   3.881772   2.277585   3.228627   3.004019
    42  F    5.139954   5.890225   4.141944   5.408197   4.863158
    43  F    3.560091   4.389350   2.679218   4.292011   3.922496
                   26         27         28         29         30
    26  H    0.000000
    27  H    1.790209   0.000000
    28  H    1.786591   1.794553   0.000000
    29  C    2.642407   3.383437   2.690498   0.000000
    30  H    2.947255   3.665687   2.435684   1.095077   0.000000
    31  H    3.658652   4.209387   3.671039   1.095921   1.793556
    32  H    2.425571   3.661481   3.085914   1.093285   1.795787
    33  C    3.388740   2.680312   2.643157   2.451632   2.704845
    34  H    4.211813   3.655741   3.653927   2.693125   3.087287
    35  H    3.668824   3.077565   2.426801   2.658925   2.446665
    36  H    3.645151   2.404184   2.940234   3.388774   3.680237
    37  P    4.926069   3.437947   5.140568   6.009896   6.592987
    38  F    6.234781   4.913860   6.666720   7.354516   8.036927
    39  F    4.908881   3.736773   5.285942   5.369568   6.134440
    40  F    6.006135   4.357628   5.815092   6.649332   7.134414
    41  F    3.751022   2.057777   3.584469   4.719759   5.137066
    42  F    5.358732   3.777545   5.402464   6.883999   7.293092
    43  F    4.084164   3.035923   4.821467   5.645359   6.306827
                   31         32         33         34         35
    31  H    0.000000
    32  H    1.789409   0.000000
    33  C    2.657794   3.396193   0.000000
    34  H    2.432833   3.668377   1.092319   0.000000
    35  H    2.962314   3.672791   1.093815   1.789412   0.000000
    36  H    3.662955   4.208045   1.092957   1.794145   1.800947
    37  P    6.392081   6.349036   4.451626   4.920149   5.244456
    38  F    7.659526   7.593731   5.921211   6.251327   6.780049
    39  F    5.508786   5.716225   3.974440   4.113975   4.970863
    40  F    6.884203   7.201238   4.627458   4.939390   5.322225
    41  F    5.208119   5.195452   3.023757   3.722723   3.677181
    42  F    7.436618   7.201220   5.313934   5.987091   5.881618
    43  F    6.172023   5.704239   4.745977   5.315179   5.556217
                   36         37         38         39         40
    36  H    0.000000
    37  P    3.512081   0.000000
    38  F    5.015235   1.600031   0.000000
    39  F    3.250343   1.642332   2.299197   0.000000
    40  F    3.576292   1.601988   2.314128   2.286307   0.000000
    41  F    2.076880   1.675859   3.275087   2.301164   2.300982
    42  F    4.327864   1.593155   2.307925   3.234172   2.294625
    43  F    4.054795   1.643845   2.306736   2.285014   3.243934
                   41         42         43
    41  F    0.000000
    42  F    2.297386   0.000000
    43  F    2.297599   2.295529   0.000000
 Stoichiometry    C14H20F6FeNP
 Framework group  C1[X(C14H20F6FeNP)]
 Deg. of freedom   123
 Full point group                 C1      NOp   1
 RotChk:  IX=0 Diff= 1.28D-15
 Largest Abelian subgroup         C1      NOp   1
 Largest concise Abelian subgroup C1      NOp   1
                         Standard orientation:                         
 ---------------------------------------------------------------------
 Center     Atomic      Atomic             Coordinates (Angstroms)
 Number     Number       Type             X           Y           Z
 ---------------------------------------------------------------------
      1          6           0       -3.437460    0.836987    0.988405
      2          1           0       -4.509949    0.800333    1.055105
      3          6           0       -2.678634    1.433293   -0.049124
      4          1           0       -3.082179    1.942567   -0.929754
      5          6           0       -1.290581    1.225083    0.224198
      6          6           0       -2.515542    0.261551    1.925733
      7          1           0       -2.787181   -0.291164    2.811442
      8          6           0       -1.198041    0.495720    1.459168
      9          1           0       -0.273634    0.134218    1.899123
     10          6           0       -3.391393   -2.074250   -0.638100
     11          1           0       -4.468866   -2.157509   -0.510249
     12          6           0       -2.729317   -1.434334   -1.728246
     13          1           0       -3.208099   -0.940578   -2.563249
     14          6           0       -1.320269   -1.536006   -1.494063
     15          1           0       -0.533950   -1.134763   -2.113749
     16          6           0       -2.408828   -2.576696    0.247721
     17          1           0       -2.584979   -3.093902    1.179455
     18          6           0       -1.121907   -2.239822   -0.273973
     19          1           0       -0.150035   -2.422406    0.177874
     20         26           0       -2.231708   -0.542929    0.056047
     21          6           0       -0.142227    1.565453   -0.654106
     22          1           0       -0.460426    1.650673   -1.700432
     23          1           0        0.644885    0.813061   -0.586394
     24          7           0        0.537575    2.913019   -0.325708
     25          6           0        1.035306    2.917605    1.092879
     26          1           0        0.180439    2.846608    1.756464
     27          1           0        1.694031    2.057471    1.216878
     28          1           0        1.574813    3.847524    1.260685
     29          6           0       -0.429958    4.033776   -0.523967
     30          1           0        0.059065    4.980789   -0.272538
     31          1           0       -0.752608    4.047284   -1.571228
     32          1           0       -1.294396    3.869465    0.124894
     33          6           0        1.701106    3.073423   -1.263417
     34          1           0        1.333278    3.022520   -2.290682
     35          1           0        2.169332    4.045504   -1.083821
     36          1           0        2.405371    2.260141   -1.070702
     37         15           0        2.748840   -1.025685    0.120975
     38          9           0        2.646728   -2.621102    0.055266
     39          9           0        1.627324   -0.895706   -1.071737
     40          9           0        3.910191   -0.982921   -0.981659
     41          9           0        2.781827    0.648655    0.184219
     42          9           0        3.809292   -1.070950    1.309056
     43          9           0        1.518008   -0.973335    1.209339
 ---------------------------------------------------------------------
 Rotational constants (GHZ):           0.3154107           0.1928503           0.1428611
 Leave Link  202 at Wed Feb  5 18:35:40 2025, MaxMem= 13421772800 cpu:               0.6 elap:               0.1
 (Enter /gpfs/fs1/soft/improv/software/custom-built/gaussian/g16/l301.exe)
 Basis read from chk: "Ferrocene_NH4_0_gas.chk" (6D, 7F)
 No pseudopotential information found on chk file.
 There are   850 symmetry adapted cartesian basis functions of A   symmetry.
 There are   772 symmetry adapted basis functions of A   symmetry.
   772 basis functions,  1261 primitive gaussians,   850 cartesian basis functions
   103 alpha electrons      103 beta electrons
       nuclear repulsion energy      3112.9332878708 Hartrees.
 IExCor=  402 DFT=T Ex+Corr=B3LYP ExCW=0 ScaHFX=  0.200000
 ScaDFX=  0.800000  0.720000  1.000000  0.810000 ScalE2=  1.000000  1.000000
 IRadAn=      5 IRanWt=     -1 IRanGd=            0 ICorTp=0 IEmpDi=131
 NAtoms=   43 NActive=   43 NUniq=   43 SFac= 1.00D+00 NAtFMM=   60 NAOKFM=F Big=F
 Integral buffers will be    131072 words long.
 Raffenetti 2 integral format.
 Two-electron integral symmetry is turned on.
 R6Disp:  Grimme-D3 Dispersion energy=       -0.0622085605 Hartrees.
 Nuclear repulsion after empirical dispersion term =     3112.8710793103 Hartrees.
 No density basis found on file  20724.
 Leave Link  301 at Wed Feb  5 18:35:40 2025, MaxMem= 13421772800 cpu:               0.5 elap:               0.1
 (Enter /gpfs/fs1/soft/improv/software/custom-built/gaussian/g16/l302.exe)
 NPDir=0 NMtPBC=     1 NCelOv=     1 NCel=       1 NClECP=     1 NCelD=      1
         NCelK=      1 NCelE2=     1 NClLst=     1 CellRange=     0.0.
 One-electron integrals computed using PRISM.
 One-electron integral symmetry used in STVInt
 NBasis=   772 RedAO= T EigKep=  1.98D-04  NBF=   772
 NBsUse=   772 1.00D-06 EigRej= -1.00D+00 NBFU=   772
 Precomputing XC quadrature grid using
 IXCGrd= 4 IRadAn=           5 IRanWt=          -1 IRanGd=           0 AccXCQ= 0.00D+00.
 Generated NRdTot=       0 NPtTot=           0 NUsed=           0 NTot=          32
 NSgBfM=   849   849   849   849   849 MxSgAt=    43 MxSgA2=    43.
 Leave Link  302 at Wed Feb  5 18:35:41 2025, MaxMem= 13421772800 cpu:              50.9 elap:               0.8
 (Enter /gpfs/fs1/soft/improv/software/custom-built/gaussian/g16/l303.exe)
 DipDrv:  MaxL=1.
 Leave Link  303 at Wed Feb  5 18:35:42 2025, MaxMem= 13421772800 cpu:               2.3 elap:               0.1
 (Enter /gpfs/fs1/soft/improv/software/custom-built/gaussian/g16/l401.exe)
 Initial guess from the checkpoint file:  "Ferrocene_NH4_0_gas.chk"
 B after Tr=     0.000000   -0.000000    0.000000
         Rot=    1.000000   -0.000000    0.000000   -0.000000 Ang=   0.00 deg.
 Guess basis will be translated and rotated to current coordinates.
 JPrj=2 DoOrth=T DoCkMO=T.
 Initial guess <Sx>= 0.0000 <Sy>= 0.0000 <Sz>= 0.0000 <S**2>= 0.0000 S= 0.0000
 Leave Link  401 at Wed Feb  5 18:35:43 2025, MaxMem= 13421772800 cpu:              40.8 elap:               1.1
 (Enter /gpfs/fs1/soft/improv/software/custom-built/gaussian/g16/l502.exe)
 Integral symmetry usage will be decided dynamically.
 UHF open shell SCF:
 Using DIIS extrapolation, IDIIS=    10.
 NGot= 13421772800 LenX= 13420210179 LenY= 13419486829
 Requested convergence on RMS density matrix=1.00D-08 within 128 cycles.
 Requested convergence on MAX density matrix=1.00D-06.
 Requested convergence on             energy=1.00D-06.
 Level shift goal  0.100 maximum shift  0.100.
 No special actions if energy rises.
 Dynamic level shift is on during FON iterations.
 Fock matrices will be formed incrementally for  20 cycles.

 Cycle   1  Pass 1  IDiag  1:
 FoFJK:  IHMeth= 1 ICntrl=       0 DoSepK=F KAlg= 0 I1Cent=           0 FoldK=F
 IRaf= 790000000 NMat=       1 IRICut=       1 DoRegI=T DoRafI=F ISym2E= 0 IDoP0=0 IntGTp=1.
 FoFCou: FMM=F IPFlag=           0 FMFlag=      100000 FMFlg1=           0
         NFxFlg=           0 DoJE=F BraDBF=F KetDBF=F FulRan=T
         wScrn=  0.000000 ICntrl=         0 IOpCl=  1 I1Cent=           0 NGrid=           0
         NMat0=    1 NMatS0=      1 NMatT0=    0 NMatD0=    1 NMtDS0=    0 NMtDT0=    0
 Symmetry not used in FoFCou.
 E= -2804.64466847407    
 DIIS: error= 2.86D-08 at cycle   1 NSaved=   1.
 NSaved= 1 IEnMin= 1 EnMin= -2804.64466847407     IErMin= 1 ErrMin= 2.86D-08
 ErrMax= 2.86D-08  0.00D+00 EMaxC= 1.00D+00 BMatC= 4.69D-12 BMatP= 4.69D-12
 IDIUse=1 WtCom= 1.00D+00 WtEn= 0.00D+00
 Coeff-Com:  0.100D+01
 Coeff:      0.100D+01
 Gap=     0.196 Goal=     0.100 Shift=    0.000
 Gap=     0.196 Goal=     0.100 Shift=    0.000
 RMSDP=5.18D-09 MaxDP=7.03D-07              OVMax= 1.43D-06

 SCF Done:  E(UB3LYP) =  -2804.64466847     A.U. after    1 cycles
            NFock=  1  Conv=0.52D-08     -V/T= 2.0042
 <Sx>= 0.0000 <Sy>= 0.0000 <Sz>= 0.0000 <S**2>=-0.0000 S=-0.0000
 <L.S>=  0.00000000000    
 KE= 2.792846251045D+03 PE=-1.286605717923D+04 EE= 4.155695180400D+03
 Annihilation of the first spin contaminant:
 S**2 before annihilation    -0.0000,   after     0.0000
 Leave Link  502 at Wed Feb  5 18:35:51 2025, MaxMem= 13421772800 cpu:             718.7 elap:               7.1
 (Enter /gpfs/fs1/soft/improv/software/custom-built/gaussian/g16/l508.exe)
 QCSCF skips out because SCF is already converged.
 Leave Link  508 at Wed Feb  5 18:35:51 2025, MaxMem= 13421772800 cpu:               0.2 elap:               0.0
 (Enter /gpfs/fs1/soft/improv/software/custom-built/gaussian/g16/l801.exe)
 DoSCS=F DFT=T ScalE2(SS,OS)=  1.000000  1.000000
 Range of M.O.s used for correlation:     1   772
 NBasis=   772 NAE=   103 NBE=   103 NFC=     0 NFV=     0
 NROrb=    772 NOA=   103 NOB=   103 NVA=   669 NVB=   669

 **** Warning!!: The largest alpha MO coefficient is  0.58494931D+02


 **** Warning!!: The largest beta MO coefficient is  0.58494931D+02

 Leave Link  801 at Wed Feb  5 18:35:51 2025, MaxMem= 13421772800 cpu:               0.4 elap:               0.0
 (Enter /gpfs/fs1/soft/improv/software/custom-built/gaussian/g16/l1101.exe)
 Using compressed storage, NAtomX=    43.
 Will process     44 centers per pass.
 R6Disp: Adding Grimme-D3 dispersion energy 1st derivatives to the gradient.
 Leave Link 1101 at Wed Feb  5 18:35:54 2025, MaxMem= 13421772800 cpu:             223.2 elap:               2.4
 (Enter /gpfs/fs1/soft/improv/software/custom-built/gaussian/g16/l1102.exe)
 Symmetrizing basis deriv contribution to polar:
 IMax=3 JMax=2 DiffMx= 0.00D+00
 Leave Link 1102 at Wed Feb  5 18:35:54 2025, MaxMem= 13421772800 cpu:               1.5 elap:               0.1
 (Enter /gpfs/fs1/soft/improv/software/custom-built/gaussian/g16/l1110.exe)
 Forming Gx(P) for the SCF density, NAtomX=    43.
 Integral derivatives from FoFJK, PRISM(SPDF).
 Do as many integral derivatives as possible in FoFJK.
 G2DrvN: MDV=   13421767977.
 G2DrvN: will do    22 centers at a time, making    2 passes.
 G2DrvN:  IPasSy=1 do centers    0 through   21.
 Calling FoFCou, ICntrl=  3107 FMM=F I1Cent=   0 AccDes= 0.00D+00.
 FoFJK:  IHMeth= 1 ICntrl=    3107 DoSepK=F KAlg= 0 I1Cent=           0 FoldK=F
 IRaf=         0 NMat=       1 IRICut=       1 DoRegI=T DoRafI=F ISym2E= 0 IDoP0=0 IntGTp=1.
 FoFCou: FMM=F IPFlag=           0 FMFlag=      100000 FMFlg1=           0
         NFxFlg=           0 DoJE=F BraDBF=F KetDBF=F FulRan=T
         wScrn=  0.000000 ICntrl=      3107 IOpCl=  1 I1Cent=           0 NGrid=           0
         NMat0=    1 NMatS0=      1 NMatT0=    0 NMatD0=    1 NMtDS0=    0 NMtDT0=    0
 Symmetry not used in FoFCou.
 G2DrvN:  IPasSy=1 do centers   22 through   43.
 Calling FoFCou, ICntrl=  3107 FMM=F I1Cent=   0 AccDes= 0.00D+00.
 End of G2Drv F.D. properties file   721 does not exist.
 End of G2Drv F.D. properties file   722 does not exist.
 End of G2Drv F.D. properties file   788 does not exist.
 Leave Link 1110 at Wed Feb  5 18:39:03 2025, MaxMem= 13421772800 cpu:           23837.6 elap:             188.3
 (Enter /gpfs/fs1/soft/improv/software/custom-built/gaussian/g16/l1002.exe)
 Minotr:  UHF open shell wavefunction.
          IDoAtm=1111111111111111111111111111111111111111111
          Direct CPHF calculation.
          Differentiating once with respect to nuclear coordinates.
          Requested convergence is 1.0D-08 RMS, and 1.0D-07 maximum.
          Secondary convergence is 1.0D-12 RMS, and 1.0D-12 maximum.
          NewPWx=T KeepS1=F KeepF1=F KeepIn=T MapXYZ=F SortEE=F KeepMc=T.
        13207 words used for storage of precomputed grid.
 Two-electron integrals replicated using symmetry.
          MDV=   13421772800 using IRadAn=       1.
          Solving linear equations simultaneously, MaxMat=     384.
 FoF2E skips out because all densities are zero.
 CalDSu exits because no D1Ps are significant.
 FoFJK:  IHMeth= 1 ICntrl=       0 DoSepK=F KAlg= 0 I1Cent=           0 FoldK=F
 IRaf= 790000000 NMat=      43 IRICut=     107 DoRegI=T DoRafI=T ISym2E= 2 IDoP0=3 IntGTp=2.
 FoFCou: FMM=F IPFlag=           0 FMFlag=      100000 FMFlg1=           0
         NFxFlg=           0 DoJE=F BraDBF=F KetDBF=F FulRan=T
         wScrn=  0.000000 ICntrl=         0 IOpCl=  1 I1Cent=           0 NGrid=           0
         NMat0=   43 NMatS0=     43 NMatT0=    0 NMatD0=   43 NMtDS0=    0 NMtDT0=    0
 Integrals replicated using symmetry in FoFCou.
 Raff kept on since  74.60% of shell-pairs survive, threshold=   0.20 IRatSp=75.
          There are   132 degrees of freedom in the 1st order CPHF.  IDoFFX=6 NUNeed=     0.
    129 vectors produced by pass  0 Test12= 1.38D-13 1.00D-09 XBig12= 3.39D-01 7.18D-02.
 AX will form    43 AO Fock derivatives at one time.
    129 vectors produced by pass  1 Test12= 1.38D-13 1.00D-09 XBig12= 7.87D-02 5.47D-02.
    127 vectors produced by pass  2 Test12= 1.38D-13 1.00D-09 XBig12= 1.57D-03 2.74D-03.
    126 vectors produced by pass  3 Test12= 1.38D-13 1.00D-09 XBig12= 8.84D-06 2.14D-04.
    126 vectors produced by pass  4 Test12= 1.38D-13 1.00D-09 XBig12= 2.08D-08 9.85D-06.
    115 vectors produced by pass  5 Test12= 1.38D-13 1.00D-09 XBig12= 3.66D-11 3.88D-07.
     40 vectors produced by pass  6 Test12= 1.38D-13 1.00D-09 XBig12= 5.22D-14 1.07D-08.
 InvSVY:  IOpt=1 It=  1 EMax= 9.99D-16
 Solved reduced A of dimension   792 with   132 vectors.
 End of Minotr F.D. properties file   721 does not exist.
 End of Minotr F.D. properties file   722 does not exist.
 End of Minotr F.D. properties file   788 does not exist.
 Leave Link 1002 at Wed Feb  5 18:53:23 2025, MaxMem= 13421772800 cpu:          106390.2 elap:             859.7
 (Enter /gpfs/fs1/soft/improv/software/custom-built/gaussian/g16/l601.exe)
 Copying SCF densities to generalized density rwf, IOpCl= 1 IROHF=0.

 **********************************************************************

            Population analysis using the SCF Density.

 **********************************************************************

 Orbital symmetries:
 Alpha Orbitals:
       Occupied  (A) (A) (A) (A) (A) (A) (A) (A) (A) (A) (A) (A)
                 (A) (A) (A) (A) (A) (A) (A) (A) (A) (A) (A) (A)
                 (A) (A) (A) (A) (A) (A) (A) (A) (A) (A) (A) (A)
                 (A) (A) (A) (A) (A) (A) (A) (A) (A) (A) (A) (A)
                 (A) (A) (A) (A) (A) (A) (A) (A) (A) (A) (A) (A)
                 (A) (A) (A) (A) (A) (A) (A) (A) (A) (A) (A) (A)
                 (A) (A) (A) (A) (A) (A) (A) (A) (A) (A) (A) (A)
                 (A) (A) (A) (A) (A) (A) (A) (A) (A) (A) (A) (A)
                 (A) (A) (A) (A) (A) (A) (A)
       Virtual   (A) (A) (A) (A) (A) (A) (A) (A) (A) (A) (A) (A)
                 (A) (A) (A) (A) (A) (A) (A) (A) (A) (A) (A) (A)
                 (A) (A) (A) (A) (A) (A) (A) (A) (A) (A) (A) (A)
                 (A) (A) (A) (A) (A) (A) (A) (A) (A) (A) (A) (A)
                 (A) (A) (A) (A) (A) (A) (A) (A) (A) (A) (A) (A)
                 (A) (A) (A) (A) (A) (A) (A) (A) (A) (A) (A) (A)
                 (A) (A) (A) (A) (A) (A) (A) (A) (A) (A) (A) (A)
                 (A) (A) (A) (A) (A) (A) (A) (A) (A) (A) (A) (A)
                 (A) (A) (A) (A) (A) (A) (A) (A) (A) (A) (A) (A)
                 (A) (A) (A) (A) (A) (A) (A) (A) (A) (A) (A) (A)
                 (A) (A) (A) (A) (A) (A) (A) (A) (A) (A) (A) (A)
                 (A) (A) (A) (A) (A) (A) (A) (A) (A) (A) (A) (A)
                 (A) (A) (A) (A) (A) (A) (A) (A) (A) (A) (A) (A)
                 (A) (A) (A) (A) (A) (A) (A) (A) (A) (A) (A) (A)
                 (A) (A) (A) (A) (A) (A) (A) (A) (A) (A) (A) (A)
                 (A) (A) (A) (A) (A) (A) (A) (A) (A) (A) (A) (A)
                 (A) (A) (A) (A) (A) (A) (A) (A) (A) (A) (A) (A)
                 (A) (A) (A) (A) (A) (A) (A) (A) (A) (A) (A) (A)
                 (A) (A) (A) (A) (A) (A) (A) (A) (A) (A) (A) (A)
                 (A) (A) (A) (A) (A) (A) (A) (A) (A) (A) (A) (A)
                 (A) (A) (A) (A) (A) (A) (A) (A) (A) (A) (A) (A)
                 (A) (A) (A) (A) (A) (A) (A) (A) (A) (A) (A) (A)
                 (A) (A) (A) (A) (A) (A) (A) (A) (A) (A) (A) (A)
                 (A) (A) (A) (A) (A) (A) (A) (A) (A) (A) (A) (A)
                 (A) (A) (A) (A) (A) (A) (A) (A) (A) (A) (A) (A)
                 (A) (A) (A) (A) (A) (A) (A) (A) (A) (A) (A) (A)
                 (A) (A) (A) (A) (A) (A) (A) (A) (A) (A) (A) (A)
                 (A) (A) (A) (A) (A) (A) (A) (A) (A) (A) (A) (A)
                 (A) (A) (A) (A) (A) (A) (A) (A) (A) (A) (A) (A)
                 (A) (A) (A) (A) (A) (A) (A) (A) (A) (A) (A) (A)
                 (A) (A) (A) (A) (A) (A) (A) (A) (A) (A) (A) (A)
                 (A) (A) (A) (A) (A) (A) (A) (A) (A) (A) (A) (A)
                 (A) (A) (A) (A) (A) (A) (A) (A) (A) (A) (A) (A)
                 (A) (A) (A) (A) (A) (A) (A) (A) (A) (A) (A) (A)
                 (A) (A) (A) (A) (A) (A) (A) (A) (A) (A) (A) (A)
                 (A) (A) (A) (A) (A) (A) (A) (A) (A) (A) (A) (A)
                 (A) (A) (A) (A) (A) (A) (A) (A) (A) (A) (A) (A)
                 (A) (A) (A) (A) (A) (A) (A) (A) (A) (A) (A) (A)
                 (A) (A) (A) (A) (A) (A) (A) (A) (A) (A) (A) (A)
                 (A) (A) (A) (A) (A) (A) (A) (A) (A) (A) (A) (A)
                 (A) (A) (A) (A) (A) (A) (A) (A) (A) (A) (A) (A)
                 (A) (A) (A) (A) (A) (A) (A) (A) (A) (A) (A) (A)
                 (A) (A) (A) (A) (A) (A) (A) (A) (A) (A) (A) (A)
                 (A) (A) (A) (A) (A) (A) (A) (A) (A) (A) (A) (A)
                 (A) (A) (A) (A) (A) (A) (A) (A) (A) (A) (A) (A)
                 (A) (A) (A) (A) (A) (A) (A) (A) (A) (A) (A) (A)
                 (A) (A) (A) (A) (A) (A) (A) (A) (A) (A) (A) (A)
                 (A) (A) (A) (A) (A) (A) (A) (A) (A) (A) (A) (A)
                 (A) (A) (A) (A) (A) (A) (A) (A) (A) (A) (A) (A)
                 (A) (A) (A) (A) (A) (A) (A) (A) (A) (A) (A) (A)
                 (A) (A) (A) (A) (A) (A) (A) (A) (A) (A) (A) (A)
                 (A) (A) (A) (A) (A) (A) (A) (A) (A) (A) (A) (A)
                 (A) (A) (A) (A) (A) (A) (A) (A) (A) (A) (A) (A)
                 (A) (A) (A) (A) (A) (A) (A) (A) (A) (A) (A) (A)
                 (A) (A) (A) (A) (A) (A) (A) (A) (A) (A) (A) (A)
                 (A) (A) (A) (A) (A) (A) (A) (A) (A)
 Beta  Orbitals:
       Occupied  (A) (A) (A) (A) (A) (A) (A) (A) (A) (A) (A) (A)
                 (A) (A) (A) (A) (A) (A) (A) (A) (A) (A) (A) (A)
                 (A) (A) (A) (A) (A) (A) (A) (A) (A) (A) (A) (A)
                 (A) (A) (A) (A) (A) (A) (A) (A) (A) (A) (A) (A)
                 (A) (A) (A) (A) (A) (A) (A) (A) (A) (A) (A) (A)
                 (A) (A) (A) (A) (A) (A) (A) (A) (A) (A) (A) (A)
                 (A) (A) (A) (A) (A) (A) (A) (A) (A) (A) (A) (A)
                 (A) (A) (A) (A) (A) (A) (A) (A) (A) (A) (A) (A)
                 (A) (A) (A) (A) (A) (A) (A)
       Virtual   (A) (A) (A) (A) (A) (A) (A) (A) (A) (A) (A) (A)
                 (A) (A) (A) (A) (A) (A) (A) (A) (A) (A) (A) (A)
                 (A) (A) (A) (A) (A) (A) (A) (A) (A) (A) (A) (A)
                 (A) (A) (A) (A) (A) (A) (A) (A) (A) (A) (A) (A)
                 (A) (A) (A) (A) (A) (A) (A) (A) (A) (A) (A) (A)
                 (A) (A) (A) (A) (A) (A) (A) (A) (A) (A) (A) (A)
                 (A) (A) (A) (A) (A) (A) (A) (A) (A) (A) (A) (A)
                 (A) (A) (A) (A) (A) (A) (A) (A) (A) (A) (A) (A)
                 (A) (A) (A) (A) (A) (A) (A) (A) (A) (A) (A) (A)
                 (A) (A) (A) (A) (A) (A) (A) (A) (A) (A) (A) (A)
                 (A) (A) (A) (A) (A) (A) (A) (A) (A) (A) (A) (A)
                 (A) (A) (A) (A) (A) (A) (A) (A) (A) (A) (A) (A)
                 (A) (A) (A) (A) (A) (A) (A) (A) (A) (A) (A) (A)
                 (A) (A) (A) (A) (A) (A) (A) (A) (A) (A) (A) (A)
                 (A) (A) (A) (A) (A) (A) (A) (A) (A) (A) (A) (A)
                 (A) (A) (A) (A) (A) (A) (A) (A) (A) (A) (A) (A)
                 (A) (A) (A) (A) (A) (A) (A) (A) (A) (A) (A) (A)
                 (A) (A) (A) (A) (A) (A) (A) (A) (A) (A) (A) (A)
                 (A) (A) (A) (A) (A) (A) (A) (A) (A) (A) (A) (A)
                 (A) (A) (A) (A) (A) (A) (A) (A) (A) (A) (A) (A)
                 (A) (A) (A) (A) (A) (A) (A) (A) (A) (A) (A) (A)
                 (A) (A) (A) (A) (A) (A) (A) (A) (A) (A) (A) (A)
                 (A) (A) (A) (A) (A) (A) (A) (A) (A) (A) (A) (A)
                 (A) (A) (A) (A) (A) (A) (A) (A) (A) (A) (A) (A)
                 (A) (A) (A) (A) (A) (A) (A) (A) (A) (A) (A) (A)
                 (A) (A) (A) (A) (A) (A) (A) (A) (A) (A) (A) (A)
                 (A) (A) (A) (A) (A) (A) (A) (A) (A) (A) (A) (A)
                 (A) (A) (A) (A) (A) (A) (A) (A) (A) (A) (A) (A)
                 (A) (A) (A) (A) (A) (A) (A) (A) (A) (A) (A) (A)
                 (A) (A) (A) (A) (A) (A) (A) (A) (A) (A) (A) (A)
                 (A) (A) (A) (A) (A) (A) (A) (A) (A) (A) (A) (A)
                 (A) (A) (A) (A) (A) (A) (A) (A) (A) (A) (A) (A)
                 (A) (A) (A) (A) (A) (A) (A) (A) (A) (A) (A) (A)
                 (A) (A) (A) (A) (A) (A) (A) (A) (A) (A) (A) (A)
                 (A) (A) (A) (A) (A) (A) (A) (A) (A) (A) (A) (A)
                 (A) (A) (A) (A) (A) (A) (A) (A) (A) (A) (A) (A)
                 (A) (A) (A) (A) (A) (A) (A) (A) (A) (A) (A) (A)
                 (A) (A) (A) (A) (A) (A) (A) (A) (A) (A) (A) (A)
                 (A) (A) (A) (A) (A) (A) (A) (A) (A) (A) (A) (A)
                 (A) (A) (A) (A) (A) (A) (A) (A) (A) (A) (A) (A)
                 (A) (A) (A) (A) (A) (A) (A) (A) (A) (A) (A) (A)
                 (A) (A) (A) (A) (A) (A) (A) (A) (A) (A) (A) (A)
                 (A) (A) (A) (A) (A) (A) (A) (A) (A) (A) (A) (A)
                 (A) (A) (A) (A) (A) (A) (A) (A) (A) (A) (A) (A)
                 (A) (A) (A) (A) (A) (A) (A) (A) (A) (A) (A) (A)
                 (A) (A) (A) (A) (A) (A) (A) (A) (A) (A) (A) (A)
                 (A) (A) (A) (A) (A) (A) (A) (A) (A) (A) (A) (A)
                 (A) (A) (A) (A) (A) (A) (A) (A) (A) (A) (A) (A)
                 (A) (A) (A) (A) (A) (A) (A) (A) (A) (A) (A) (A)
                 (A) (A) (A) (A) (A) (A) (A) (A) (A) (A) (A) (A)
                 (A) (A) (A) (A) (A) (A) (A) (A) (A) (A) (A) (A)
                 (A) (A) (A) (A) (A) (A) (A) (A) (A) (A) (A) (A)
                 (A) (A) (A) (A) (A) (A) (A) (A) (A) (A) (A) (A)
                 (A) (A) (A) (A) (A) (A) (A) (A) (A) (A) (A) (A)
                 (A) (A) (A) (A) (A) (A) (A) (A) (A) (A) (A) (A)
                 (A) (A) (A) (A) (A) (A) (A) (A) (A)
 The electronic state is 1-A.
 Alpha  occ. eigenvalues -- -256.06202 -77.25487 -30.02801 -25.90353 -25.88592
 Alpha  occ. eigenvalues --  -25.88533 -24.63724 -24.63178 -24.62764 -24.62124
 Alpha  occ. eigenvalues --  -24.62112 -24.61983 -14.48946 -10.28030 -10.26563
 Alpha  occ. eigenvalues --  -10.25855 -10.25700 -10.21246 -10.20645 -10.20203
 Alpha  occ. eigenvalues --  -10.19995 -10.19614 -10.19075 -10.19011 -10.18717
 Alpha  occ. eigenvalues --  -10.18494 -10.18026  -6.68287  -4.84826  -4.84783
 Alpha  occ. eigenvalues --   -4.84773  -3.41520  -2.21454  -2.17356  -2.17240
 Alpha  occ. eigenvalues --   -1.21052  -1.13606  -1.13524  -1.13164  -1.10279
 Alpha  occ. eigenvalues --   -1.09950  -1.04701  -0.90191  -0.87563  -0.79398
 Alpha  occ. eigenvalues --   -0.78699  -0.77933  -0.72558  -0.71022  -0.70834
 Alpha  occ. eigenvalues --   -0.70596  -0.65493  -0.61042  -0.56867  -0.56681
 Alpha  occ. eigenvalues --   -0.55595  -0.55109  -0.54536  -0.53905  -0.53516
 Alpha  occ. eigenvalues --   -0.52224  -0.51139  -0.50127  -0.49724  -0.49638
 Alpha  occ. eigenvalues --   -0.47712  -0.47020  -0.44976  -0.44304  -0.43971
 Alpha  occ. eigenvalues --   -0.43718  -0.43547  -0.42555  -0.42034  -0.42017
 Alpha  occ. eigenvalues --   -0.41619  -0.41278  -0.40988  -0.39940  -0.39671
 Alpha  occ. eigenvalues --   -0.39431  -0.39137  -0.38535  -0.37533  -0.37241
 Alpha  occ. eigenvalues --   -0.36912  -0.36209  -0.35313  -0.35153  -0.34849
 Alpha  occ. eigenvalues --   -0.34605  -0.34587  -0.34450  -0.31250  -0.31087
 Alpha  occ. eigenvalues --   -0.30827  -0.27787  -0.27702  -0.25368  -0.25143
 Alpha  occ. eigenvalues --   -0.23170  -0.20529  -0.20434
 Alpha virt. eigenvalues --   -0.00869  -0.00206   0.01405   0.03369   0.04436
 Alpha virt. eigenvalues --    0.05193   0.05596   0.06218   0.07083   0.07346
 Alpha virt. eigenvalues --    0.07727   0.08217   0.08758   0.09698   0.09726
 Alpha virt. eigenvalues --    0.11319   0.11882   0.12435   0.12646   0.12780
 Alpha virt. eigenvalues --    0.14357   0.14543   0.15640   0.16351   0.16718
 Alpha virt. eigenvalues --    0.17081   0.17781   0.17981   0.18254   0.18968
 Alpha virt. eigenvalues --    0.19166   0.19660   0.21426   0.21717   0.22499
 Alpha virt. eigenvalues --    0.23863   0.24990   0.26087   0.26638   0.27550
 Alpha virt. eigenvalues --    0.28297   0.29466   0.29820   0.31213   0.31901
 Alpha virt. eigenvalues --    0.32608   0.33690   0.34461   0.35806   0.36448
 Alpha virt. eigenvalues --    0.36956   0.37406   0.38392   0.39395   0.40301
 Alpha virt. eigenvalues --    0.40945   0.43333   0.44153   0.44638   0.45653
 Alpha virt. eigenvalues --    0.46412   0.47077   0.48015   0.48258   0.49983
 Alpha virt. eigenvalues --    0.50304   0.50622   0.51009   0.51230   0.51697
 Alpha virt. eigenvalues --    0.52008   0.52314   0.52485   0.53948   0.54817
 Alpha virt. eigenvalues --    0.55954   0.57107   0.57625   0.58810   0.59851
 Alpha virt. eigenvalues --    0.60310   0.60700   0.62905   0.63934   0.64379
 Alpha virt. eigenvalues --    0.64773   0.65395   0.65597   0.65812   0.66470
 Alpha virt. eigenvalues --    0.66633   0.67149   0.67976   0.68571   0.68918
 Alpha virt. eigenvalues --    0.69627   0.69966   0.70542   0.71644   0.72128
 Alpha virt. eigenvalues --    0.72811   0.73126   0.73916   0.74426   0.74682
 Alpha virt. eigenvalues --    0.75001   0.75351   0.76212   0.76944   0.77206
 Alpha virt. eigenvalues --    0.78167   0.78904   0.79100   0.79909   0.80401
 Alpha virt. eigenvalues --    0.81032   0.81583   0.82382   0.82850   0.83775
 Alpha virt. eigenvalues --    0.85266   0.85811   0.86456   0.87995   0.88406
 Alpha virt. eigenvalues --    0.89343   0.89571   0.90560   0.91095   0.91551
 Alpha virt. eigenvalues --    0.92337   0.93072   0.93818   0.94305   0.94681
 Alpha virt. eigenvalues --    0.94780   0.95768   0.96864   0.97671   0.98888
 Alpha virt. eigenvalues --    0.99376   1.00992   1.01666   1.01940   1.02912
 Alpha virt. eigenvalues --    1.03629   1.04089   1.04975   1.05226   1.06619
 Alpha virt. eigenvalues --    1.07364   1.07926   1.09343   1.09801   1.10453
 Alpha virt. eigenvalues --    1.10877   1.11169   1.11862   1.12133   1.13121
 Alpha virt. eigenvalues --    1.13655   1.14171   1.14905   1.15494   1.15892
 Alpha virt. eigenvalues --    1.16848   1.18027   1.18747   1.19675   1.20678
 Alpha virt. eigenvalues --    1.20944   1.21929   1.22637   1.23465   1.24421
 Alpha virt. eigenvalues --    1.25624   1.26447   1.27198   1.27974   1.29702
 Alpha virt. eigenvalues --    1.30189   1.30883   1.31609   1.32285   1.32836
 Alpha virt. eigenvalues --    1.33994   1.34741   1.35040   1.35246   1.36133
 Alpha virt. eigenvalues --    1.37360   1.38005   1.38457   1.38741   1.40141
 Alpha virt. eigenvalues --    1.41461   1.42000   1.42204   1.42843   1.43675
 Alpha virt. eigenvalues --    1.44221   1.44603   1.45573   1.46714   1.47284
 Alpha virt. eigenvalues --    1.47623   1.48157   1.48850   1.49716   1.50753
 Alpha virt. eigenvalues --    1.51235   1.52248   1.52568   1.53389   1.54026
 Alpha virt. eigenvalues --    1.55013   1.56216   1.56239   1.56787   1.57692
 Alpha virt. eigenvalues --    1.58192   1.58403   1.59480   1.59961   1.60413
 Alpha virt. eigenvalues --    1.61012   1.61774   1.62033   1.62095   1.63336
 Alpha virt. eigenvalues --    1.64268   1.65596   1.65946   1.68266   1.68774
 Alpha virt. eigenvalues --    1.70487   1.71900   1.72810   1.73399   1.74834
 Alpha virt. eigenvalues --    1.76027   1.76692   1.76976   1.77994   1.78695
 Alpha virt. eigenvalues --    1.79160   1.81017   1.82350   1.83882   1.85534
 Alpha virt. eigenvalues --    1.86389   1.86992   1.88303   1.88590   1.88872
 Alpha virt. eigenvalues --    1.89812   1.90175   1.90586   1.90948   1.92044
 Alpha virt. eigenvalues --    1.92575   1.93223   1.94898   1.95530   1.98104
 Alpha virt. eigenvalues --    1.99009   1.99386   2.01294   2.01882   2.04748
 Alpha virt. eigenvalues --    2.06307   2.11405   2.11555   2.13291   2.19662
 Alpha virt. eigenvalues --    2.20200   2.20955   2.21182   2.22005   2.22257
 Alpha virt. eigenvalues --    2.23175   2.24203   2.25255   2.26155   2.27604
 Alpha virt. eigenvalues --    2.28988   2.29537   2.30047   2.31394   2.31987
 Alpha virt. eigenvalues --    2.32519   2.32867   2.34099   2.34690   2.35278
 Alpha virt. eigenvalues --    2.36788   2.38966   2.39699   2.40553   2.41253
 Alpha virt. eigenvalues --    2.41842   2.43205   2.44347   2.46254   2.48140
 Alpha virt. eigenvalues --    2.48995   2.50374   2.52165   2.53018   2.53419
 Alpha virt. eigenvalues --    2.54228   2.56562   2.61879   2.62842   2.63630
 Alpha virt. eigenvalues --    2.63899   2.66590   2.66971   2.67323   2.68425
 Alpha virt. eigenvalues --    2.68782   2.69013   2.69255   2.70512   2.71499
 Alpha virt. eigenvalues --    2.73445   2.74277   2.76015   2.76950   2.80033
 Alpha virt. eigenvalues --    2.82603   2.83119   2.83309   2.84010   2.84173
 Alpha virt. eigenvalues --    2.85141   2.85494   2.87446   2.88782   2.90027
 Alpha virt. eigenvalues --    2.90217   2.91234   2.92090   2.92442   2.93631
 Alpha virt. eigenvalues --    2.94077   2.95289   2.95679   2.96311   2.96424
 Alpha virt. eigenvalues --    2.96721   2.97483   2.97952   2.98714   3.00386
 Alpha virt. eigenvalues --    3.01395   3.02197   3.02470   3.03012   3.03451
 Alpha virt. eigenvalues --    3.04252   3.05254   3.06733   3.09739   3.10045
 Alpha virt. eigenvalues --    3.10908   3.12305   3.12988   3.13292   3.15653
 Alpha virt. eigenvalues --    3.17086   3.18260   3.18804   3.21223   3.21608
 Alpha virt. eigenvalues --    3.24970   3.25176   3.25788   3.26708   3.27657
 Alpha virt. eigenvalues --    3.28180   3.30021   3.30873   3.31361   3.32153
 Alpha virt. eigenvalues --    3.33271   3.34493   3.34896   3.36499   3.37427
 Alpha virt. eigenvalues --    3.38100   3.38830   3.40734   3.41744   3.42559
 Alpha virt. eigenvalues --    3.43935   3.44381   3.45541   3.46957   3.47475
 Alpha virt. eigenvalues --    3.48615   3.49493   3.50367   3.53390   3.55973
 Alpha virt. eigenvalues --    3.57354   3.59529   3.61382   3.62783   3.64371
 Alpha virt. eigenvalues --    3.64818   3.66326   3.66987   3.67420   3.67855
 Alpha virt. eigenvalues --    3.68620   3.70363   3.70709   3.72374   3.72722
 Alpha virt. eigenvalues --    3.74062   3.74544   3.74845   3.76537   3.78691
 Alpha virt. eigenvalues --    3.79709   3.80245   3.82535   3.85311   3.87269
 Alpha virt. eigenvalues --    3.88853   3.92666   3.93070   3.97518   3.99091
 Alpha virt. eigenvalues --    3.99236   4.00440   4.01151   4.01929   4.03568
 Alpha virt. eigenvalues --    4.03966   4.04828   4.06338   4.11086   4.12356
 Alpha virt. eigenvalues --    4.12670   4.14496   4.15481   4.16947   4.17889
 Alpha virt. eigenvalues --    4.18166   4.19025   4.19648   4.20472   4.20964
 Alpha virt. eigenvalues --    4.21618   4.21992   4.22938   4.23151   4.25502
 Alpha virt. eigenvalues --    4.25779   4.26918   4.27496   4.27766   4.28668
 Alpha virt. eigenvalues --    4.29133   4.29482   4.30950   4.32942   4.33703
 Alpha virt. eigenvalues --    4.34297   4.34704   4.34884   4.35725   4.36427
 Alpha virt. eigenvalues --    4.36733   4.37289   4.37495   4.38648   4.38963
 Alpha virt. eigenvalues --    4.39658   4.40072   4.40645   4.40973   4.41629
 Alpha virt. eigenvalues --    4.42043   4.42332   4.42586   4.42764   4.43009
 Alpha virt. eigenvalues --    4.43075   4.44171   4.44530   4.45266   4.46291
 Alpha virt. eigenvalues --    4.46525   4.46765   4.47196   4.48152   4.48799
 Alpha virt. eigenvalues --    4.49503   4.50352   4.51195   4.52243   4.53615
 Alpha virt. eigenvalues --    4.53882   4.54216   4.54979   4.56583   4.57070
 Alpha virt. eigenvalues --    4.58588   4.58904   4.59096   4.60123   4.60985
 Alpha virt. eigenvalues --    4.61467   4.61691   4.62509   4.63383   4.63904
 Alpha virt. eigenvalues --    4.64631   4.64996   4.67041   4.67842   4.68855
 Alpha virt. eigenvalues --    4.70071   4.70349   4.72144   4.72349   4.74542
 Alpha virt. eigenvalues --    4.75724   4.76501   4.77711   4.78374   4.79159
 Alpha virt. eigenvalues --    4.80704   4.81505   4.82150   4.82819   4.83669
 Alpha virt. eigenvalues --    4.85006   4.86026   4.86871   4.88004   4.88614
 Alpha virt. eigenvalues --    4.89052   4.89529   4.92083   4.93517   4.95475
 Alpha virt. eigenvalues --    4.97266   4.98698   4.99945   5.00630   5.02594
 Alpha virt. eigenvalues --    5.03731   5.04207   5.06066   5.06469   5.07779
 Alpha virt. eigenvalues --    5.12528   5.13729   5.14501   5.15138   5.16295
 Alpha virt. eigenvalues --    5.18725   5.22943   5.25951   5.26951   5.27688
 Alpha virt. eigenvalues --    5.28411   5.29237   5.32544   5.32699   5.36648
 Alpha virt. eigenvalues --    5.38506   5.42115   5.43679   5.45583   5.47819
 Alpha virt. eigenvalues --    5.48219   5.50422   5.51649   5.52313   5.53824
 Alpha virt. eigenvalues --    5.54375   5.58820   5.59897   5.61620   5.67176
 Alpha virt. eigenvalues --    5.67489   5.68317   5.75748   5.89014   5.91035
 Alpha virt. eigenvalues --    5.91381   5.96561   6.07678   6.13138   6.19980
 Alpha virt. eigenvalues --    6.27918   6.63872   6.65426   6.65507   6.65816
 Alpha virt. eigenvalues --    6.65842   6.66321   6.66491   6.66620   6.67379
 Alpha virt. eigenvalues --    6.68733   6.68897   6.69294   6.69505   6.69809
 Alpha virt. eigenvalues --    6.69855   6.69940   6.70240   6.70433   6.70568
 Alpha virt. eigenvalues --    6.70605   6.70827   6.71070   6.71397   6.71521
 Alpha virt. eigenvalues --    6.72391   6.82688   6.84965   6.86857   6.90525
 Alpha virt. eigenvalues --    6.90697   6.91036   7.11216   7.12416   7.12837
 Alpha virt. eigenvalues --    7.13592   7.13929   7.17138   7.21802   7.22071
 Alpha virt. eigenvalues --    7.22518   7.24329   7.24983   7.27713   7.28104
 Alpha virt. eigenvalues --    7.29418   9.67908   9.71375  10.04266  10.12708
 Alpha virt. eigenvalues --   10.15575  10.67132  11.09966  11.12688  11.15212
 Alpha virt. eigenvalues --   11.18614  11.37053  11.54528  11.57398  11.78700
 Alpha virt. eigenvalues --   11.91147  11.98142  12.09319  12.17802  12.69363
 Alpha virt. eigenvalues --   12.71471  12.81183  21.30255  28.85898
  Beta  occ. eigenvalues -- -256.06202 -77.25487 -30.02801 -25.90353 -25.88592
  Beta  occ. eigenvalues --  -25.88533 -24.63724 -24.63178 -24.62764 -24.62124
  Beta  occ. eigenvalues --  -24.62112 -24.61983 -14.48946 -10.28030 -10.26563
  Beta  occ. eigenvalues --  -10.25855 -10.25700 -10.21246 -10.20645 -10.20203
  Beta  occ. eigenvalues --  -10.19995 -10.19614 -10.19075 -10.19011 -10.18717
  Beta  occ. eigenvalues --  -10.18494 -10.18026  -6.68287  -4.84826  -4.84783
  Beta  occ. eigenvalues --   -4.84773  -3.41520  -2.21454  -2.17356  -2.17240
  Beta  occ. eigenvalues --   -1.21052  -1.13606  -1.13524  -1.13164  -1.10279
  Beta  occ. eigenvalues --   -1.09950  -1.04701  -0.90191  -0.87563  -0.79398
  Beta  occ. eigenvalues --   -0.78699  -0.77933  -0.72558  -0.71022  -0.70834
  Beta  occ. eigenvalues --   -0.70596  -0.65493  -0.61042  -0.56867  -0.56681
  Beta  occ. eigenvalues --   -0.55595  -0.55109  -0.54536  -0.53905  -0.53516
  Beta  occ. eigenvalues --   -0.52224  -0.51139  -0.50127  -0.49724  -0.49638
  Beta  occ. eigenvalues --   -0.47712  -0.47020  -0.44976  -0.44304  -0.43971
  Beta  occ. eigenvalues --   -0.43718  -0.43547  -0.42555  -0.42034  -0.42017
  Beta  occ. eigenvalues --   -0.41619  -0.41278  -0.40988  -0.39940  -0.39671
  Beta  occ. eigenvalues --   -0.39431  -0.39137  -0.38535  -0.37533  -0.37241
  Beta  occ. eigenvalues --   -0.36912  -0.36209  -0.35313  -0.35153  -0.34849
  Beta  occ. eigenvalues --   -0.34605  -0.34587  -0.34450  -0.31250  -0.31087
  Beta  occ. eigenvalues --   -0.30827  -0.27787  -0.27702  -0.25368  -0.25143
  Beta  occ. eigenvalues --   -0.23170  -0.20529  -0.20434
  Beta virt. eigenvalues --   -0.00869  -0.00206   0.01405   0.03369   0.04436
  Beta virt. eigenvalues --    0.05193   0.05596   0.06218   0.07083   0.07346
  Beta virt. eigenvalues --    0.07727   0.08217   0.08758   0.09698   0.09726
  Beta virt. eigenvalues --    0.11319   0.11882   0.12435   0.12646   0.12780
  Beta virt. eigenvalues --    0.14357   0.14543   0.15640   0.16351   0.16718
  Beta virt. eigenvalues --    0.17081   0.17781   0.17981   0.18254   0.18968
  Beta virt. eigenvalues --    0.19166   0.19660   0.21426   0.21717   0.22499
  Beta virt. eigenvalues --    0.23863   0.24990   0.26087   0.26638   0.27550
  Beta virt. eigenvalues --    0.28297   0.29466   0.29820   0.31213   0.31901
  Beta virt. eigenvalues --    0.32608   0.33690   0.34461   0.35806   0.36448
  Beta virt. eigenvalues --    0.36956   0.37406   0.38392   0.39395   0.40301
  Beta virt. eigenvalues --    0.40945   0.43333   0.44153   0.44638   0.45653
  Beta virt. eigenvalues --    0.46412   0.47077   0.48015   0.48258   0.49983
  Beta virt. eigenvalues --    0.50304   0.50622   0.51009   0.51230   0.51697
  Beta virt. eigenvalues --    0.52008   0.52314   0.52485   0.53948   0.54817
  Beta virt. eigenvalues --    0.55954   0.57107   0.57625   0.58810   0.59851
  Beta virt. eigenvalues --    0.60310   0.60700   0.62905   0.63934   0.64379
  Beta virt. eigenvalues --    0.64773   0.65395   0.65597   0.65812   0.66470
  Beta virt. eigenvalues --    0.66633   0.67149   0.67976   0.68571   0.68918
  Beta virt. eigenvalues --    0.69627   0.69966   0.70542   0.71644   0.72128
  Beta virt. eigenvalues --    0.72811   0.73126   0.73916   0.74426   0.74682
  Beta virt. eigenvalues --    0.75001   0.75351   0.76212   0.76944   0.77206
  Beta virt. eigenvalues --    0.78167   0.78904   0.79100   0.79909   0.80401
  Beta virt. eigenvalues --    0.81032   0.81583   0.82382   0.82850   0.83775
  Beta virt. eigenvalues --    0.85266   0.85811   0.86456   0.87995   0.88406
  Beta virt. eigenvalues --    0.89343   0.89571   0.90560   0.91095   0.91551
  Beta virt. eigenvalues --    0.92337   0.93072   0.93818   0.94305   0.94681
  Beta virt. eigenvalues --    0.94780   0.95768   0.96864   0.97671   0.98888
  Beta virt. eigenvalues --    0.99376   1.00992   1.01666   1.01940   1.02912
  Beta virt. eigenvalues --    1.03629   1.04089   1.04975   1.05226   1.06619
  Beta virt. eigenvalues --    1.07364   1.07926   1.09343   1.09801   1.10453
  Beta virt. eigenvalues --    1.10877   1.11169   1.11862   1.12133   1.13121
  Beta virt. eigenvalues --    1.13655   1.14171   1.14905   1.15494   1.15892
  Beta virt. eigenvalues --    1.16848   1.18027   1.18747   1.19675   1.20678
  Beta virt. eigenvalues --    1.20944   1.21929   1.22637   1.23465   1.24421
  Beta virt. eigenvalues --    1.25624   1.26447   1.27198   1.27974   1.29702
  Beta virt. eigenvalues --    1.30189   1.30883   1.31609   1.32285   1.32836
  Beta virt. eigenvalues --    1.33994   1.34741   1.35040   1.35246   1.36133
  Beta virt. eigenvalues --    1.37360   1.38005   1.38457   1.38741   1.40141
  Beta virt. eigenvalues --    1.41461   1.42000   1.42204   1.42843   1.43675
  Beta virt. eigenvalues --    1.44221   1.44603   1.45573   1.46714   1.47284
  Beta virt. eigenvalues --    1.47623   1.48157   1.48850   1.49716   1.50753
  Beta virt. eigenvalues --    1.51235   1.52248   1.52568   1.53389   1.54026
  Beta virt. eigenvalues --    1.55013   1.56216   1.56239   1.56787   1.57692
  Beta virt. eigenvalues --    1.58192   1.58403   1.59480   1.59961   1.60413
  Beta virt. eigenvalues --    1.61012   1.61774   1.62033   1.62095   1.63336
  Beta virt. eigenvalues --    1.64268   1.65596   1.65946   1.68266   1.68774
  Beta virt. eigenvalues --    1.70487   1.71900   1.72810   1.73399   1.74834
  Beta virt. eigenvalues --    1.76027   1.76692   1.76976   1.77994   1.78695
  Beta virt. eigenvalues --    1.79160   1.81017   1.82350   1.83882   1.85534
  Beta virt. eigenvalues --    1.86389   1.86992   1.88303   1.88590   1.88872
  Beta virt. eigenvalues --    1.89812   1.90175   1.90586   1.90948   1.92044
  Beta virt. eigenvalues --    1.92575   1.93223   1.94898   1.95530   1.98104
  Beta virt. eigenvalues --    1.99009   1.99386   2.01294   2.01882   2.04748
  Beta virt. eigenvalues --    2.06307   2.11405   2.11555   2.13291   2.19662
  Beta virt. eigenvalues --    2.20200   2.20955   2.21182   2.22005   2.22257
  Beta virt. eigenvalues --    2.23175   2.24203   2.25255   2.26155   2.27604
  Beta virt. eigenvalues --    2.28988   2.29537   2.30047   2.31394   2.31987
  Beta virt. eigenvalues --    2.32519   2.32867   2.34099   2.34690   2.35278
  Beta virt. eigenvalues --    2.36788   2.38966   2.39699   2.40553   2.41253
  Beta virt. eigenvalues --    2.41842   2.43205   2.44347   2.46254   2.48140
  Beta virt. eigenvalues --    2.48995   2.50374   2.52165   2.53018   2.53419
  Beta virt. eigenvalues --    2.54228   2.56562   2.61879   2.62842   2.63630
  Beta virt. eigenvalues --    2.63899   2.66590   2.66971   2.67323   2.68425
  Beta virt. eigenvalues --    2.68782   2.69013   2.69255   2.70512   2.71499
  Beta virt. eigenvalues --    2.73445   2.74277   2.76015   2.76950   2.80033
  Beta virt. eigenvalues --    2.82603   2.83119   2.83309   2.84010   2.84173
  Beta virt. eigenvalues --    2.85141   2.85494   2.87446   2.88782   2.90027
  Beta virt. eigenvalues --    2.90217   2.91234   2.92090   2.92442   2.93631
  Beta virt. eigenvalues --    2.94077   2.95289   2.95679   2.96311   2.96424
  Beta virt. eigenvalues --    2.96721   2.97483   2.97952   2.98714   3.00386
  Beta virt. eigenvalues --    3.01395   3.02197   3.02470   3.03012   3.03451
  Beta virt. eigenvalues --    3.04252   3.05254   3.06733   3.09739   3.10045
  Beta virt. eigenvalues --    3.10908   3.12305   3.12988   3.13292   3.15653
  Beta virt. eigenvalues --    3.17086   3.18260   3.18804   3.21223   3.21608
  Beta virt. eigenvalues --    3.24970   3.25176   3.25788   3.26708   3.27657
  Beta virt. eigenvalues --    3.28180   3.30021   3.30873   3.31361   3.32153
  Beta virt. eigenvalues --    3.33271   3.34493   3.34896   3.36499   3.37427
  Beta virt. eigenvalues --    3.38100   3.38830   3.40734   3.41744   3.42559
  Beta virt. eigenvalues --    3.43935   3.44381   3.45541   3.46957   3.47475
  Beta virt. eigenvalues --    3.48615   3.49493   3.50367   3.53390   3.55973
  Beta virt. eigenvalues --    3.57354   3.59529   3.61382   3.62783   3.64371
  Beta virt. eigenvalues --    3.64818   3.66326   3.66987   3.67420   3.67855
  Beta virt. eigenvalues --    3.68620   3.70363   3.70709   3.72374   3.72722
  Beta virt. eigenvalues --    3.74062   3.74544   3.74845   3.76537   3.78691
  Beta virt. eigenvalues --    3.79709   3.80245   3.82535   3.85311   3.87269
  Beta virt. eigenvalues --    3.88853   3.92666   3.93070   3.97518   3.99091
  Beta virt. eigenvalues --    3.99236   4.00440   4.01151   4.01929   4.03568
  Beta virt. eigenvalues --    4.03966   4.04828   4.06338   4.11086   4.12356
  Beta virt. eigenvalues --    4.12670   4.14496   4.15481   4.16947   4.17889
  Beta virt. eigenvalues --    4.18166   4.19025   4.19648   4.20472   4.20964
  Beta virt. eigenvalues --    4.21618   4.21992   4.22938   4.23151   4.25502
  Beta virt. eigenvalues --    4.25779   4.26918   4.27496   4.27766   4.28668
  Beta virt. eigenvalues --    4.29133   4.29482   4.30950   4.32942   4.33703
  Beta virt. eigenvalues --    4.34297   4.34704   4.34884   4.35725   4.36427
  Beta virt. eigenvalues --    4.36733   4.37289   4.37495   4.38648   4.38963
  Beta virt. eigenvalues --    4.39658   4.40072   4.40645   4.40973   4.41629
  Beta virt. eigenvalues --    4.42043   4.42332   4.42586   4.42764   4.43009
  Beta virt. eigenvalues --    4.43075   4.44171   4.44530   4.45266   4.46291
  Beta virt. eigenvalues --    4.46525   4.46765   4.47196   4.48152   4.48799
  Beta virt. eigenvalues --    4.49503   4.50352   4.51195   4.52243   4.53615
  Beta virt. eigenvalues --    4.53882   4.54216   4.54979   4.56583   4.57070
  Beta virt. eigenvalues --    4.58588   4.58904   4.59096   4.60123   4.60985
  Beta virt. eigenvalues --    4.61467   4.61691   4.62509   4.63383   4.63904
  Beta virt. eigenvalues --    4.64631   4.64996   4.67041   4.67842   4.68855
[...]
 75,0.00009738,0.00026927,0.00109960,0.00052169,0.00004072,-0.00022620,
 0.00002811,-0.00016158,-0.00000899,0.00017109,0.00000581,-0.00001036,-
 0.00004735,0.00005067,-0.00008455,0.00000911,-0.00004363,0.00004827,0.
 00001336,0.00078046,-0.00013953,0.00006970,0.00009441,-0.00051678,0.00
 000142,-0.00004748,0.00020177,0.00022696,-0.00149594,0.00005170,-0.001
 95896,-0.02539363,0.04008753,-0.09704934,0.00052909,0.01258865,0.00380
 994,0.04042061,-0.05943523,0.15010627,-0.00008849,0.00000084,-0.000004
 06,-0.00002533,-0.00000148,-0.00000046,-0.00001792,0.00001081,0.000043
 06,0.00000031,0.00001084,-0.00001778,0.00023125,0.00020956,-0.00000403
 ,0.00001768,0.00001393,-0.00000545,-0.00000963,-0.00001471,0.00000030,
 0.00008681,-0.00008664,0.00005557,0.00004492,-0.00006538,-0.00016643,-
 0.00020121,0.00011829,0.00009159,-0.00004916,0.00004343,0.00002483,0.0
 0008082,-0.00013295,0.00009354,-0.00003097,0.00005757,0.00000115,0.000
 03358,-0.00013480,-0.00017978,0.00045677,-0.00015485,0.00028803,0.0001
 3801,0.00013181,-0.00017546,-0.00002426,0.00000614,0.00004252,0.000024
 73,-0.00021736,0.00011573,0.00062502,-0.00009706,-0.00055125,-0.000407
 74,0.00029330,0.00014322,-0.00051670,-0.00022336,0.00017723,0.00005579
 ,0.00003356,-0.00000301,0.00029366,-0.00096552,-0.00103952,0.00012172,
 0.00018511,0.00005175,0.00009458,0.00009736,-0.00020153,-0.00000940,-0
 .00011396,-0.00005048,-0.00046041,0.00000118,0.00013383,0.00002899,0.0
 0010505,0.00005012,0.00017479,-0.00004105,0.00002743,0.00002588,0.0000
 7243,0.00003180,-0.00002198,-0.00003182,0.00000675,-0.00002765,-0.0000
 4588,-0.00004193,-0.00000083,-0.00003674,0.00027531,-0.00000021,-0.000
 10475,-0.00000283,0.00001913,0.00014506,0.00005817,-0.00054540,0.00012
 451,-0.00025228,-0.12441928,0.03404519,0.08002747,-0.03871940,-0.00663
 839,0.02461169,-0.02038631,0.03023252,0.00762330,0.16219708,0.00008672
 ,0.00002389,0.00001978,0.00003131,0.00001615,-0.00000288,-0.00016387,0
 .00012499,-0.00013218,-0.00001887,0.00001165,0.00000636,-0.00001424,-0
 .00018378,-0.00007871,0.00000559,0.00000987,0.00000591,0.00003510,0.00
 000996,-0.00000857,0.00001321,-0.00019079,0.00011166,-0.00005077,-0.00
 004064,0.00008259,0.00005931,-0.00003705,-0.00001073,0.00001549,0.0000
 1101,-0.00003444,-0.00001960,0.00019126,-0.00008140,-0.00002840,-0.000
 00458,-0.00000343,-0.00010376,-0.00012428,0.00042870,-0.00050063,-0.00
 012353,-0.00022796,0.00008884,0.00008282,-0.00014249,0.00002900,-0.000
 00683,-0.00003142,0.00007786,-0.00021060,0.00018907,0.00021280,-0.0001
 8774,-0.00021147,0.00031409,0.00028184,-0.00019215,-0.00039301,-0.0002
 1784,-0.00026136,-0.00001718,0.00003502,0.,-0.00050471,0.00077925,0.00
 110416,0.00024995,-0.00016244,-0.00010297,0.00025847,0.00014343,-0.000
 12584,0.00004864,-0.00020796,-0.00004822,-0.00062895,0.00026149,0.0006
 9498,-0.00000681,-0.00002231,0.00003100,-0.00004108,0.00020690,0.00002
 744,-0.00000596,-0.00002066,-0.00000683,-0.00000384,-0.00001142,0.0000
 1372,0.00000362,-0.00004022,-0.00003126,-0.00012191,0.00020355,0.00028
 757,0.00009514,-0.00009027,-0.00004549,0.00004303,-0.00009109,-0.00011
 239,0.00000965,0.00087236,-0.00024540,0.03656674,-0.08266004,-0.047265
 23,-0.01775617,0.00648888,0.00750335,0.03277412,-0.02233708,-0.0074610
 9,-0.04992722,0.10855955,0.00006482,0.00001484,0.00000466,0.00002465,-
 0.00000377,0.00001185,-0.00004864,0.00001545,0.00001531,0.00001074,-0.
 00001125,0.00001286,0.00002000,0.00012528,-0.00012463,-0.00010281,-0.0
 0007116,0.00006852,-0.00000516,0.00001624,0.00000554,-0.00011723,0.000
 03916,-0.00011019,-0.00014783,0.00008575,0.00024554,0.00008546,-0.0000
 3657,-0.00004243,0.00001767,-0.00002762,0.00000176,0.00003730,-0.00007
 011,0.00003074,0.00002191,-0.00004515,-0.00000154,0.00010418,0.0000808
 1,-0.00007270,0.00000684,-0.00003758,-0.00012739,-0.00005968,-0.000058
 36,0.00012000,-0.00002044,-0.00000024,-0.00001468,-0.00007117,0.000291
 40,-0.00010683,-0.00030344,-0.00004767,0.00008520,0.00029029,-0.000144
 50,0.00017576,-0.00028598,0.00001135,0.00007698,0.00006458,-0.00012873
 ,-0.00000440,0.00009085,0.00011896,-0.00033277,0.00002753,-0.00006959,
 0.00006422,0.00003292,0.00033537,-0.00028304,0.00003818,-0.00014977,0.
 00001501,-0.00045372,0.00053574,0.00050742,0.00001270,-0.00007981,0.00
 004016,0.00000736,0.00012391,0.00011603,-0.00000047,0.00002157,-0.0000
 1399,0.00002765,-0.00005042,0.00001591,-0.00001210,0.00000424,-0.00000
 846,0.00018166,-0.00000189,0.00014997,0.00010830,-0.00023412,-0.000032
 06,0.00001198,0.00000745,-0.00003508,-0.00033610,0.00063464,-0.0006657
 9,0.07875098,-0.04313642,-0.16601264,0.01401113,0.00049910,0.00208569,
 -0.00256729,0.00304983,0.00873456,-0.10611705,0.06168604,0.21730700,-0
 .00016665,0.00002806,-0.00002330,-0.00003809,0.00001051,-0.00003330,-0
 .00013547,0.00012396,-0.00002743,-0.00004065,0.00002039,-0.00003401,0.
 00045024,0.00011029,0.00008901,0.00016744,0.00018620,-0.00009130,-0.00
 000601,-0.00001799,-0.00000278,0.00024323,-0.00022252,0.00049469,0.000
 21871,-0.00035955,-0.00073349,-0.00018627,0.00013215,0.00009167,-0.000
 04485,0.00004151,0.00003866,0.00006507,-0.00019729,0.00010958,-0.00002
 416,0.00005039,-0.00000362,0.00005779,-0.00007602,-0.00023379,0.000623
 19,-0.00018697,0.00026666,0.00012197,0.00003095,-0.00015148,-0.0000223
 6,0.00000986,0.00004424,0.00005647,-0.00017879,-0.00012202,0.00036295,
 0.00032306,-0.00000380,-0.00033207,0.00033447,0.00003999,-0.00111095,-
 0.00098501,-0.00049146,0.00006518,0.00023312,0.00003442,0.00051473,-0.
 00174691,-0.00028784,0.00031731,-0.00012400,0.00008541,0.00083553,0.00
 057748,-0.00019915,0.00011740,-0.00030258,-0.00011987,-0.00378272,0.00
 080957,0.00243518,-0.00002840,0.00062848,0.00029571,0.00034894,0.00016
 410,-0.00002474,0.00002967,0.00013546,0.00006657,-0.00005318,-0.000055
 73,0.00001972,-0.00002396,-0.00015101,-0.00011748,0.00060247,0.0002720
 6,0.00120173,0.00030024,-0.00048131,-0.00010523,0.00001046,0.00055809,
 0.00001774,-0.00315088,0.00319372,-0.00216187,-0.10742256,-0.04937772,
 -0.01579091,0.00256963,-0.00261564,-0.00081518,-0.03023387,-0.00492938
 ,-0.02779802,0.00838663,0.00069529,0.00156506,0.16591782,0.00000531,0.
 00006258,0.00000834,0.00001960,0.00002857,-0.00002717,-0.00045931,0.00
 033219,-0.00017752,-0.00006096,0.00003007,-0.00002590,0.00052106,0.000
 12729,-0.00005125,0.00011402,0.00015773,-0.00001278,0.00005984,0.00000
 323,-0.00001372,0.00014775,-0.00055866,0.00055302,0.00008553,-0.000325
 05,-0.00034291,-0.00007425,0.00006591,0.00006415,-0.00001793,0.0000326
 5,0.00000860,0.00001868,-0.00003189,0.00005554,-0.00004355,0.00002748,
 -0.00000982,-0.00012920,-0.00016969,0.00004400,0.00016862,-0.00018355,
 0.00008736,0.00015143,0.00008286,-0.00019595,0.00001731,0.00000139,0.0
 0000304,0.00009293,-0.00025656,0.00003095,0.00042966,0.00001615,-0.000
 16519,0.00031571,0.00062859,-0.00018859,-0.00235859,-0.00097321,-0.000
 30789,0.00013206,0.00014332,-0.00001484,-0.00007235,-0.00116580,-0.000
 18058,0.00050485,-0.00012344,0.00004206,0.00177717,0.00128114,-0.00204
 631,0.00019578,-0.00138493,-0.00032039,-0.00191766,-0.00202004,0.00087
 553,0.00002151,0.00007039,0.00025907,0.00053221,0.00072564,0.00002369,
 0.00003471,0.00017145,0.00009085,-0.00008136,-0.00009850,0.00006969,-0
 .00001306,-0.00025993,-0.00022926,0.00023525,-0.00088002,0.00353541,0.
 00061936,-0.00167477,-0.00051919,0.00022338,-0.00024153,-0.00033076,-0
 .00087354,-0.00083406,-0.00155245,-0.03496636,-0.10438526,-0.01299597,
 -0.00325087,0.00264611,-0.00080839,0.00161560,0.01060572,0.00212231,-0
 .00955150,-0.02331743,-0.02733777,0.07474176,0.15832037,0.00003846,0.0
 0001455,0.00000730,0.00001477,-0.00001089,0.00002043,-0.00007007,0.000
 02656,0.00007247,0.00002064,-0.00000996,0.00000352,0.00012839,0.000365
 77,-0.00020220,-0.00016440,-0.00009775,0.00011919,-0.00000547,0.000006
 89,0.00000523,-0.00008695,0.00001602,-0.00007828,-0.00018926,0.0000119
 7,0.00021487,-0.00004864,0.00004367,0.00002377,-0.00001683,-0.00001003
 ,0.00003093,0.00006728,-0.00023517,0.00014740,0.00001621,-0.00000670,0
 .00000078,0.00008897,0.00011361,-0.00040246,0.00058325,-0.00015083,0.0
 0008948,-0.00002636,-0.00000232,0.00008845,-0.00003401,0.00000472,0.00
 001806,-0.00011238,0.00023539,-0.00011401,0.00000617,-0.00013111,-0.00
 018606,0.00010302,-0.00001387,0.00034372,-0.00069452,-0.00029851,0.000
 21010,0.00020221,-0.00015199,0.00003626,0.00043510,-0.00056150,-0.0014
 4818,0.00011892,0.00009499,-0.00003630,0.00082752,0.00100549,-0.001584
 54,0.00014883,-0.00093514,-0.00002416,-0.00076948,-0.00044590,-0.00070
 367,0.00003263,-0.00017547,0.00008110,0.00002823,-0.00000227,0.0006107
 2,0.00002833,0.00010417,-0.00003329,0.00008882,-0.00021062,0.00004640,
 -0.00010423,0.00007644,0.00000384,0.00052831,0.00013376,0.00022735,0.0
 0002589,-0.00013650,0.00010148,-0.00004117,0.00037598,0.00006482,-0.00
 072770,0.00062229,-0.00175513,-0.01232980,-0.01436594,-0.06639823,-0.0
 0095279,-0.00084473,0.00497245,-0.03455643,-0.00321107,-0.01424841,-0.
 00825944,-0.03216142,-0.01684126,0.02497256,0.02392221,0.09040950,-0.0
 0013167,0.00001029,-0.00000948,-0.00003090,0.00001160,-0.00002297,-0.0
 0005333,0.00006185,-0.00003299,-0.00002123,0.00001576,-0.00002114,0.00
 028736,-0.00008249,0.00007193,0.00012732,0.00014081,-0.00008381,-0.000
 01666,-0.00001553,0.00000034,0.00015909,-0.00022071,0.00030741,0.00016
 897,-0.00012576,-0.00052439,-0.00015596,0.00009543,0.00008207,-0.00003
 626,0.00004873,0.00000525,0.00005271,-0.00001822,0.00003483,-0.0000284
 5,0.00004846,-0.00000512,-0.00003388,-0.00017147,0.00003447,0.00010413
 ,-0.00019641,0.00018413,0.00018208,0.00010903,-0.00022494,-0.00002006,
 0.00000792,0.00002906,0.00017052,-0.00029698,0.00006471,0.00052137,0.0
 0008589,-0.00031672,-0.00036093,0.00030863,0.00000090,-0.00049785,-0.0
 0027066,-0.00033944,0.00000358,0.00023419,0.00003427,-0.00004765,-0.00
 073748,0.00041118,0.00015534,0.00003711,0.00006421,0.00030416,0.000126
 05,-0.00014222,-0.00002083,-0.00015327,-0.00008913,-0.00095700,-0.0002
 7546,0.00015491,0.00001149,0.00024570,0.00004508,0.00013643,-0.0000137
 8,-0.00000408,0.00002637,0.00005415,0.00002562,-0.00002495,-0.00002058
 ,0.00000638,-0.00002404,-0.00005714,-0.00004951,-0.00009449,-0.0000766
 6,0.00032099,0.00004075,-0.00011457,-0.00002626,0.00003940,0.00007147,
 -0.00000661,-0.00037475,0.00041961,-0.00021677,-0.09396781,0.04615762,
 -0.05077337,-0.02786053,0.00485169,-0.03118434,0.00430858,0.00151436,-
 0.00133059,0.00937411,-0.00249237,0.01272459,0.00666847,-0.01767043,0.
 00534557,0.12262349,0.00016615,0.00001553,0.00002906,0.00004553,0.0000
 0269,0.00002078,-0.00015463,0.00009277,-0.00007650,0.00000042,0.000004
 53,0.00001078,-0.00008629,0.00010893,-0.00016648,-0.00011580,-0.000136
 28,0.00009914,0.00005480,0.00001177,-0.00001352,-0.00005617,-0.0000446
 9,-0.00014965,-0.00021076,-0.00001419,0.00052890,0.00008106,-0.0000609
 2,-0.00002242,0.00001700,-0.00000895,-0.00001517,-0.00001792,0.0000916
 0,-0.00001867,-0.00001670,-0.00000967,-0.00000037,-0.00009332,0.000002
 11,0.00014494,-0.00015512,-0.00005871,-0.00012507,0.00001214,0.0000160
 6,-0.00000971,0.00003937,-0.00000638,-0.00003242,0.00007175,-0.0000357
 7,0.00006999,0.00006837,-0.00027691,-0.00008019,0.00042999,0.00020294,
 -0.00010122,-0.00048196,-0.00016556,0.00020471,0.00003954,-0.00017415,
 -0.00003514,-0.00019801,0.00062795,-0.00028672,0.00022245,-0.00008455,
 -0.00007308,-0.00002428,0.00034164,-0.00011725,0.00006511,-0.00017224,
 -0.00000987,-0.00015967,0.00070566,0.00084211,0.00001109,-0.00016089,0
 .00004832,0.00000960,0.00025413,0.00004745,-0.00001017,-0.00000143,-0.
 00000016,-0.00000068,-0.00002321,0.00001350,0.00000864,-0.00004150,-0.
 00003453,0.00010609,0.00003434,0.00041478,0.00013106,-0.00023151,-0.00
 006538,0.00003776,-0.00005881,-0.00008973,-0.00053844,0.00116772,-0.00
 062759,0.04697771,-0.13227577,0.07730108,-0.00766439,0.00898488,-0.005
 30533,0.00150019,0.00294842,0.00205518,0.00141026,0.00742314,0.0057198
 6,-0.00568762,-0.04404423,0.01964931,-0.06493676,0.17674280,-0.0000248
 3,0.00000675,-0.00000040,0.00000007,-0.00000655,0.00001395,0.00003812,
 -0.00004154,0.00006787,0.00002146,-0.00000670,0.00000622,0.00007814,0.
 00014213,-0.00010468,-0.00008800,-0.00005904,0.00003477,-0.00003705,0.
 00000613,0.00001342,-0.00008119,0.00005900,-0.00007478,-0.00009870,0.0
 0013312,-0.00000098,-0.00009157,0.00007513,0.00003861,-0.00002529,0.00
 000805,0.00001128,0.00007502,-0.00013217,0.00008779,0.00000082,0.00000
 594,0.00000193,0.00009355,-0.00002916,-0.00013783,0.00021486,-0.000166
 99,0.00004520,0.00006178,0.00009879,-0.00003781,-0.00004737,-0.0000011
 2,0.00002280,-0.00010876,-0.00002634,0.00003756,0.00027853,-0.00008671
 ,-0.00050467,-0.00017019,0.00001545,0.00031790,-0.00001206,-0.00001743
 ,0.00014966,0.00005259,-0.00008896,0.00000728,0.00008830,-0.00021015,-
 0.00064608,0.00002782,0.00000363,0.00010000,-0.00021828,0.00013098,-0.
 00003369,-0.00005738,0.00010228,0.00003819,0.00025987,0.00020582,-0.00
 038653,0.00001925,0.00000353,-0.00001214,0.00000126,-0.00007647,0.0000
 9233,0.00001078,0.00002334,-0.00001583,0.00002202,-0.00003392,0.000003
 95,-0.00002889,0.00002679,0.00000694,0.00013866,-0.00010449,-0.0002392
 7,-0.00003259,0.00000783,0.00004550,-0.00002036,0.00007081,0.00005067,
 0.00009023,-0.00040200,0.00000570,-0.04827418,0.07234749,-0.14318165,-
 0.02616928,0.00431443,-0.01120821,-0.00159400,0.00247835,0.00320559,0.
 00080493,0.01820594,-0.04727490,0.00022097,0.01240375,0.00489689,0.065
 91733,-0.10083425,0.18603639,-0.00053058,0.00008002,-0.00004693,-0.000
 11181,0.00006181,-0.00015571,-0.00032479,0.00026189,-0.00016913,-0.000
 10978,0.00004043,-0.00007457,0.00088368,-0.00080978,0.00041494,0.00065
 937,0.00093096,-0.00050189,-0.00001962,-0.00004056,-0.00001130,-0.0006
 2082,0.00001834,0.00315967,-0.00161637,0.00124464,-0.00031520,-0.00031
 765,0.00021510,0.00010885,-0.00003368,0.00014092,0.00002832,-0.0000537
 3,0.00002741,-0.00015643,-0.00008470,0.00009367,0.00000649,-0.00005414
 ,-0.00039521,0.00075969,-0.00025760,0.00010954,0.00033192,0.00032332,-
 0.00001931,-0.00075069,-0.00000204,0.00001004,0.00005461,-0.00010279,-
 0.00125101,-0.00001823,-0.00011995,0.00150466,0.00050805,-0.00057434,0
 .00044958,-0.00057848,-0.00139724,-0.00011287,-0.00182882,-0.00000767,
 0.00091548,0.00015115,-0.00148994,-0.00022095,0.00205930,0.00035784,-0
 .00007173,-0.00001877,0.00009768,0.00016823,-0.00039938,-0.00001566,-0
 .00058990,-0.00029258,-0.00260296,-0.00114042,0.00016712,0.00016960,0.
 00009199,0.00002036,0.00040351,0.00010206,0.00016434,0.00006254,0.0001
 5389,0.00007107,-0.00003869,-0.00011109,0.00002898,-0.00006193,-0.0001
 6534,-0.00013647,-0.00037633,0.00022358,0.00084188,0.00010937,-0.00024
 341,-0.00004842,0.00014808,0.00006323,-0.00011525,-0.00060018,0.001446
 72,-0.00051109,-0.08577147,0.01783056,0.03103241,0.00923512,-0.0079398
 2,-0.00717416,0.00870355,-0.00058593,0.00350377,0.00344998,0.00108537,
 0.00230976,-0.04224845,-0.01124016,0.02533986,-0.02070647,0.02910263,0
 .00866361,0.13564769,0.00044913,0.00008409,0.00005257,0.00010961,-0.00
 000182,0.00007266,-0.00033308,0.00021523,-0.00020880,0.00000348,0.0000
 1401,0.00001819,-0.00072120,0.00049243,-0.00028375,-0.00019255,-0.0005
 2383,0.00032731,0.00009122,0.00003009,-0.00002603,0.00091228,-0.000280
 70,-0.00171526,0.00116744,-0.00117019,-0.00002986,-0.00004920,0.000050
 04,0.00004585,-0.00000737,0.00004332,-0.00001683,-0.00001224,0.0000919
 2,0.00004230,-0.00005036,0.00002590,-0.00000055,-0.00020592,-0.0001373
 3,0.00018434,0.00008472,-0.00029783,-0.00003016,0.00018223,0.00020499,
 -0.00031357,0.00002536,0.,-0.00001451,0.00000545,-0.00075472,0.0001066
 0,0.00056678,-0.00035185,-0.00029858,0.00056751,0.00062010,0.00010517,
 -0.00005469,-0.00182713,0.00433823,0.00045922,-0.00151335,-0.00048203,
 0.00147243,-0.00349979,-0.00104043,0.00059002,0.00013246,-0.00016881,-
 0.00301839,-0.00001968,-0.00046403,0.00003668,0.00006102,0.00013531,0.
 00090298,-0.00226344,-0.00101948,0.00032911,-0.00132086,-0.00021020,-0
 .00030609,0.00024962,0.00031839,-0.00002185,-0.00005456,-0.00010515,0.
 00008942,-0.00005896,0.00002327,-0.00004573,0.00003652,0.00001344,0.00
 051027,0.00014605,-0.00045738,0.00000493,-0.00003156,0.00005289,-0.000
 03714,-0.00005637,-0.00002090,0.00019323,-0.00018185,-0.00018737,0.011
 96373,-0.07066778,-0.01424344,-0.00055239,-0.02433687,-0.03498793,-0.0
 0248590,0.00768600,0.01420774,0.00123666,0.00455157,-0.00167450,-0.015
 71488,0.00736769,0.00734591,0.03329036,-0.02169331,-0.00855147,-0.0314
 3528,0.10894075,0.00051965,-0.00001885,0.00000305,0.00011489,-0.000095
 73,0.00019544,0.00019304,-0.00027966,0.00043320,0.00017053,-0.00004952
 ,0.00008138,0.00007818,0.00103194,-0.00109241,-0.00085556,-0.00120355,
 0.00079621,-0.00000644,0.00004365,0.00002633,0.00032271,0.00070898,-0.
 00293427,0.00109582,-0.00112827,0.00075071,-0.00008730,0.00007095,0.00
 003718,-0.00001854,-0.00001490,0.00004639,0.00018878,-0.00047561,0.000
 22087,0.00002610,-0.00001648,0.00002199,0.00044754,0.00023709,-0.00056
 495,0.00082308,-0.00037180,0.00019275,-0.00008330,0.00006832,0.0000854
 3,-0.00008220,-0.00000227,0.00001506,-0.00040223,0.00046665,0.00002914
 ,0.00012227,-0.00057148,-0.00111577,0.00031527,-0.00030993,0.00101432,
 0.00004811,0.00089575,0.00009110,0.00006163,-0.00026472,0.00021374,0.0
 0021013,0.00131024,-0.00373360,-0.00023606,0.00010240,-0.00001275,-0.0
 0254794,0.00012892,-0.00012197,-0.00003562,0.00053485,0.00034625,0.002
 92663,0.00090493,-0.00163284,0.00018305,-0.00111537,0.00001289,0.00012
 101,-0.00000679,0.00049109,0.00000021,0.00010818,-0.00002415,0.0001194
 6,-0.00017020,0.00002965,-0.00005397,0.00013125,0.00004975,0.00072494,
 -0.00029375,-0.00062467,-0.00008774,-0.00008930,0.00014237,-0.00006339
 ,0.00016049,0.00012974,-0.00014822,-0.00101984,-0.00027711,0.03275884,
 -0.02344153,-0.10148937,0.00071005,-0.02831115,-0.01950661,0.00973467,
 0.00981273,-0.04827233,0.00229345,-0.00137296,0.00221411,0.01728253,0.
 00365501,0.00120966,-0.00046135,0.00109052,0.00852112,-0.06642268,0.03
 916082,0.16400187\\-0.00000186,0.00000198,-0.00000185,-0.00000277,0.00
 000034,-0.00000149,-0.00000235,0.00000033,-0.00000143,-0.00000177,0.00
 000242,-0.00000310,0.00000254,-0.00000052,-0.00000064,-0.00000015,-0.0
 0000247,0.00000116,-0.00000029,-0.00000098,0.00000059,0.00000077,-0.00
 000109,0.00000129,0.00000165,-0.00000267,-0.00000018,-0.00000317,0.000
 00082,-0.00000236,-0.00000082,-0.00000089,-0.00000003,0.00000079,0.000
 00196,-0.00000461,-0.00000083,0.00000383,-0.00000474,0.00000471,0.0000
 0154,-0.00000656,0.00000270,-0.00000016,-0.00000336,-0.00000038,-0.000
 00310,0.00000030,-0.00000149,-0.00000354,0.00000301,0.00000191,-0.0000
 0585,0.00000254,0.00000293,-0.00000247,-0.00000035,-0.00000119,0.00000
 056,-0.00000397,0.00000143,0.00000012,0.00000026,0.00000098,0.00000098
 ,0.00000153,0.00000098,0.00000289,0.00000061,-0.00000253,-0.00000096,0
 .00000531,-0.00000414,-0.00000216,-0.00000215,-0.00000035,0.00000185,-
 0.00000283,-0.00000097,0.00000574,0.00000187,0.00000306,0.00000146,0.0
 0000014,0.00000038,-0.00000341,0.00000035,-0.00000043,-0.00000049,0.00
 000107,0.00000125,-0.00000012,0.00000141,-0.00000073,-0.00000178,0.000
 00083,-0.00000522,0.00000157,0.00000288,-0.00000122,0.00000216,-0.0000
 0052,0.00000755,0.00000278,0.00000436,0.00000007,-0.00000543,-0.000001
 15,-0.00004420,-0.00001080,-0.00000741,0.00003263,0.00001650,0.0000073
 7,-0.00000221,-0.00000048,0.00000239,-0.00000407,-0.00000586,-0.000007
 53,0.00002836,0.00001666,0.00000814,-0.00000509,-0.00000444,0.00000659
 ,-0.00000644,-0.00000682,0.00000227\\\@
 The archive entry for this job was punched.


 TOM, TOM, THE BURGLAR'S SON
 STOLE A MACHINE AND AWAY HE RUN
 THE JOB WAS NEAT, BUT TOM GOT BEAT
 BY THE TIME HE GOT HOME IT WAS OBSOLETE.
 Job cpu time:       2 days  0 hours 35 minutes  8.5 seconds.
 Elapsed time:       0 days  0 hours 23 minutes 24.7 seconds.
 File lengths (MBytes):  RWF=   3990 Int=      0 D2E=      0 Chk=     96 Scr=      1
 Normal termination of Gaussian 16 at Wed Feb  5 20:43:49 2025.
