163
 energy: -251.541483426981 gnorm: 0.003969239218 xtb: 6.6.0 (conda-forge)
C           -3.53558000004922        0.97504999966753        0.77839000005139
H           -4.55230764769367        1.26979564467010        0.96258244107811
C           -2.64518702084949        1.58691904374195       -0.13087532222362
H           -2.85703295784885        2.43205023801042       -0.76079157948838
C           -1.38773902186912        0.92756026542529       -0.02545431641831
C           -2.84021249907879       -0.05921504032255        1.44728217153872
H           -3.23462117035098       -0.69282510993183        2.21971646379590
C           -1.51904645358619       -0.09127244805826        0.95804315480701
H           -0.74514977173723       -0.76479482648374        1.27284584070990
C           -4.36009297848633       -1.27388048815885       -1.79295000743378
H           -5.41344733855274       -1.06409902867028       -1.73232580619210
C           -3.42572287524611       -0.62761027122647       -2.63264142970817
H           -3.63659085405810        0.16826117557836       -3.32247990514361
C           -2.17090259194734       -1.25017561187644       -2.44911052535090
H           -1.25783178472169       -1.01858618588487       -2.96701598624442
C           -3.67921604384547       -2.29673930737203       -1.09052653964516
H           -4.12478284800934       -2.99114412667537       -0.40119873040383
C           -2.32947344966762       -2.28080948243613       -1.49847768573157
H           -1.55052621000369       -2.94077800248081       -1.16546128041279
Fe          -2.81654841778512       -0.43236489589442       -0.63722393278409
C           -0.17503510077219        1.21666972419258       -0.84508099272652
H           -0.47425001755330        1.65184353895088       -1.80037247665643
H            0.35992200979675        0.28449050762023       -1.03220724437740
N            0.78010068226905        2.17560113772755       -0.20132258875929
C            1.26465439663350        1.62785359604063        1.07505349481006
H            0.43291716751768        1.51088347438880        1.76639720668566
H            1.72626395114801        0.65736832250753        0.90260049696933
H            2.00169949067215        2.29982981930804        1.50862557705915
C            0.10407953124316        3.46398769752935        0.03063799432710
H            0.80154231989890        4.17283102121931        0.47038244455695
H           -0.25805422238811        3.85259509584791       -0.91912488770984
H           -0.73530349839272        3.32358827040323        0.70791084358995
C            1.91635111948553        2.37970498419840       -1.11487140158555
H            1.55560253964050        2.78856272469536       -2.05673729282231
H            2.62844031077289        3.07036739572612       -0.66896082517166
H            2.41493857851567        1.43026433180270       -1.30280038620975
P            1.92454090616290       -2.58044740605314       -0.99402406579418
F            1.30350407794602       -4.06736613224247       -1.16680256206166
F            1.10110103785622       -2.06506690825261       -2.28313672770391
F            3.17225461709787       -2.99183011283699       -1.95244637434012
F            2.55562061380931       -1.09351787939873       -0.81335329253711
F            2.77348360271356       -3.08784052949382        0.29834660872193
F            0.70516838768916       -2.17242201569863       -0.02044281406893
C            2.10432015173101        1.02402590080503        7.67354133760354
C            1.34437147385882        0.94044187190863        8.88495325091018
N            0.73648126712821        0.86873335624442        9.85280232528671
H            1.42571158323103        1.04924231467386        6.82200973773558
H            2.70703599375088        1.93120527909434        7.68552844719118
H            2.75684184977781        0.15511690951533        7.59628447466385
C           -3.08995979864870       -2.09018732122973        8.71823353845791
C           -2.48934382072079       -2.13914443222479        7.41901032931795
N           -2.00959588143511       -2.18024412573400        6.37984633592951
H           -2.35396156064412       -2.37642280929763        9.46883341101769
H           -3.43602158917276       -1.07695930136574        8.91934968739588
H           -3.93575933545025       -2.77578120026232        8.75531386239188
C            2.07281715771824        7.54835859736257        5.29753857748612
C            1.67728965221781        6.20063244266748        5.01738998377101
N            1.36274700218332        5.12329259375601        4.79255545081726
H            2.97285609580866        7.54238749540838        5.91153209920264
H            2.27483008674886        8.06646439160280        4.36064617677384
H            1.27128744268105        8.05828074083035        5.83065158958440
C            2.87007674366564       -3.23973909653017        3.78876289385405
C            3.16742451356099       -4.63657759331785        3.89497925269857
N            3.39796781067644       -5.75540343434184        3.98045893669749
H            3.71131179324002       -2.65867736382718        4.16296110784931
H            2.69829037410092       -2.99544329182113        2.74109322582755
H            1.97766812530971       -3.01177092968740        4.36979647063511
C           -7.12997493430053       -0.02362391788188        4.80031323491499
C           -7.48122283575472       -0.52549383814921        6.09572375119019
N           -7.75867875706904       -0.92764171563977        7.13213909467594
H           -7.97682493127525        0.51465056270644        4.37525780646111
H           -6.27720806918910        0.64870253776652        4.89268925197171
H           -6.86878369590671       -0.85747932707404        4.14998124985494
C            6.58022361807916        4.01677343077830        4.16660497471204
C            6.43892805927232        4.32111479650235        5.55855726347969
N            6.32654718969633        4.56247100124509        6.67253825340606
H            5.60016564254014        3.81520489065806        3.73676417347231
H            7.03300218632763        4.86450435810570        3.65399531322578
H            7.21508039715573        3.13933386617704        4.04992357317786
C           -1.78416005748717       -5.80608291811788        2.63603314042538
C           -2.26717754914203       -6.71522740153243        1.64039703597067
N           -2.65393174506812       -7.44199461530257        0.84433253539035
H           -1.16965155284974       -6.34662068517635        3.35463938005421
H           -1.18450686803141       -5.03372248724275        2.15728759561656
H           -2.62596948593112       -5.34502384744831        3.15023993857563
C           -3.18833644383350        9.66117654718239        1.00837829012454
C           -1.97414229628559        8.90140433901553        1.05298228161161
N           -1.00461299479028        8.29410139092865        1.09206889005029
H           -3.74943787257278        9.50284817357364        1.92862866805529
H           -2.95096916872195       10.71956183085504        0.90409411054244
H           -3.78719880558687        9.33653736169457        0.15802895168689
C            6.27650507310845       -2.32322479660085       -0.10801364011332
C            6.19683468812360       -1.07278705007385        0.58292300231481
N            6.13577219281242       -0.07492427867741        1.14119991827372
H            6.54401842913064       -3.11340935319411        0.59196876223843
H            5.30578723793663       -2.54891192698976       -0.54854563188790
H            7.02444188823971       -2.26175940097640       -0.89664531377127
C          -11.21558810892498       -3.65022272952698        0.67823327142564
C          -10.32798916902503       -2.52589846736155        0.62955062733734
N           -9.62148699389312       -1.62568602877989        0.58736264919883
H          -11.25288514220245       -4.03806180696572        1.69550708301339
H          -12.21361576790643       -3.33897900664926        0.37175572362464
H          -10.85458883209061       -4.42827169800214        0.00655318242254
C            3.61261548349633        7.78560839448612       -1.67146669479206
C            4.17543075682551        7.36525030475221       -0.42370078909392
N            4.61842590782723        7.01831198103442        0.57374759965926
H            2.52576879169248        7.76315829071588       -1.60423720650492
H            3.94243595522644        8.79906646513401       -1.89602698510692
H            3.94333224845063        7.11417260423581       -2.46300231435258
C            2.45810200059180       -7.35544455204982       -0.91372023716911
C            2.83701195116945       -7.47804056115253       -2.28893212943652
N            3.13223883090084       -7.57467894156617       -3.39132448051099
H            3.32391580031152       -7.52398688904338       -0.27541261708679
H            2.07367245100906       -6.35044289696778       -0.74256886677864
H            1.68320393283259       -8.08454665907644       -0.68133608582616
C           -6.96882086055385        3.94460047171110       -2.58833469305891
C           -6.20558881976857        5.15342022384910       -2.49669224732741
N           -5.59199697396951        6.11712821023350       -2.41987782054675
H           -7.07992818063869        3.50791492409230       -1.59659111158604
H           -7.95263675322620        4.16706407971364       -3.00050462079855
H           -6.45433355829649        3.23967802734923       -3.23995492791946
C            7.56976850326232        2.85583635887070       -2.60260406102368
C            8.10276653630416        3.77811158948271       -3.56028487469148
N            8.52987957435479        4.51641803562631       -4.32429710394334
H            7.62649036627703        3.29227842022934       -1.60615437021395
H            6.53110701589832        2.63659571380825       -2.84633651570120
H            8.14646717408712        1.93203587787820       -2.62917140524446
C           -1.96011580089021       -6.38880560147888       -4.50593771632786
C           -2.65704483427654       -5.59145362199686       -5.46945657497002
N           -3.21485898324216       -4.95758659752875       -6.24306301488519
H           -1.04877663502819       -5.87539362265729       -4.20115468342578
H           -2.59406378675151       -6.54424705034850       -3.63374803811823
H           -1.70229194951865       -7.35164958207615       -4.94558765852882
C           -1.57701562134848        4.25855659553948       -5.44042250932438
C           -0.99464984203197        3.82246674824569       -4.21237544616339
N           -0.53284013377842        3.47831718103339       -3.22228452995010
H           -2.07584995016157        5.21467956434351       -5.28495645786053
H           -0.79524054778579        4.37194354657768       -6.19055644080182
H           -2.30270881321445        3.52170743714364       -5.78318600621054
C            3.81053513296479       -2.82600453312646       -5.36235614684172
C            4.95876742947126       -1.98362402136772       -5.21368620159823
N            5.87883763741394       -1.31294534444096       -5.09509334403936
H            3.35939734906852       -2.98737486535987       -4.38416051034461
H            3.08866802406826       -2.34422188819371       -6.02026708942970
H            4.11058314835387       -3.78530355947473       -5.78184120185106
C           -6.87312415389460       -1.50046712200479       -6.90615720677529
C           -6.38593202840486       -0.15745037887703       -6.99994082939309
N           -5.99456298558756        0.91640405425477       -7.07169949511323
H           -6.58353171200141       -1.92436493951797       -5.94555695246495
H           -7.95891311670768       -1.50104182102210       -6.99362867226891
H           -6.44330354349247       -2.10051927503302       -7.70689148580923
C            4.90257163494768        3.29233224492362       -7.88575163898041
C            4.20017020150877        3.85217611787181       -6.77062334195190
N            3.64070981676986        4.30314827598615       -5.87933476193165
H            4.34383197465294        3.48535373135023       -8.80057246837458
H            5.89090323473593        3.74482167088252       -7.95610371834978
H            5.00494365200145        2.21720316048164       -7.74448554961600
C           -1.36614913309295       -0.78652075318278       -8.39122558711738
C           -0.20699644574447        0.05182222960473       -8.46039091301562
N            0.71848081529112        0.72362616162652       -8.51794077031510
H           -1.71833367774498       -0.83697904772506       -7.36183432744307
H           -2.14955270757616       -0.37376337162695       -9.02531473957091
H           -1.11167684638630       -1.78844118285795       -8.73442194934020
