53
Ferrocene_NH4_poly_0_gas_secondrun.log	Energy: -1904966.7629885
C         -2.65477        3.04075        0.68277
H         -3.44233        3.77660        0.74586
C         -1.91267        2.70904       -0.48572
H         -2.03690        3.14336       -1.46765
C         -0.99549        1.65641       -0.14845
C         -2.19211        2.21337        1.75032
H         -2.57502        2.21138        2.75985
C         -1.17576        1.35374        1.24668
H         -0.66890        0.56986        1.78534
C         -4.87255        0.65994       -0.09894
H         -5.67029        1.38544       -0.03657
C         -4.12092        0.33442       -1.26841
H         -4.25328        0.77146       -2.24739
C         -3.15883       -0.65717       -0.91078
H         -2.41577       -1.11052       -1.54907
C         -4.37012       -0.13306        0.97739
H         -4.71896       -0.10477        1.99923
C         -3.31064       -0.94525        0.47540
H         -2.69502       -1.63818        1.02727
Fe        -2.88526        1.04917        0.20654
C         -0.15819        0.90521       -1.11879
H         -0.49466        1.09937       -2.13978
H         -0.20295       -0.16098       -0.93182
N          1.34694        1.24815       -1.11797
C          1.91450        0.97999        0.28963
H          1.43490        1.71860        0.93144
H          1.54984       -0.00975        0.55600
C          1.54528        2.67331       -1.50750
H          2.60964        2.90454       -1.49515
H          1.14389        2.82017       -2.51153
H          1.00705        3.30737       -0.80269
C          1.99710        0.34458       -2.12588
H          1.52249        0.51700       -3.09283
H          3.05865        0.57972       -2.18151
H          1.84960       -0.68682       -1.80775
P          0.30975       -2.84341        0.08986
F         -0.27170       -2.14791       -1.28352
F          1.78457       -2.19507       -0.28699
F          0.66707       -4.16080       -0.72741
F          0.91483       -3.44322        1.43622
F         -1.16072       -3.37662        0.43922
F         -0.03334       -1.43360        0.88358
C          3.41268        1.05567        0.38404
C          4.17657       -0.11148        0.26019
C          4.05746        2.26942        0.64698
C          5.56325       -0.05226        0.36572
H          3.67550       -1.05882        0.09616
C          5.44426        2.32662        0.75036
H          3.46919        3.17106        0.79107
C          6.19928        1.16476        0.60357
H          6.14636       -0.96192        0.27189
H          5.93264        3.27270        0.95752
H          7.27995        1.20592        0.68869
