 Entering Gaussian System, Link 0=g16
 Input=Ferrocene_NH4_0_gas_secondrun.com
 Output=Ferrocene_NH4_0_gas_secondrun.log
 Initial command:
 /gpfs/fs1/soft/improv/software/custom-built/gaussian/g16/l1.exe "/scratch/Gau-1400373.inp" -scrdir="/scratch/"
 Default CPUs for threads: 0-127
 Default linda workers: i586.lcrc.anl.gov
 Default is to use 128 SMP processors on each worker.
 Entering Link 1 = /gpfs/fs1/soft/improv/software/custom-built/gaussian/g16/l1.exe PID=   1400374.
  
 Copyright (c) 1988-2021, Gaussian, Inc.  All Rights Reserved.
  
 This is part of the Gaussian(R) 16 program.  It is based on
 the Gaussian(R) 09 system (copyright 2009, Gaussian, Inc.),
 the Gaussian(R) 03 system (copyright 2003, Gaussian, Inc.),
 the Gaussian(R) 98 system (copyright 1998, Gaussian, Inc.),
 the Gaussian(R) 94 system (copyright 1995, Gaussian, Inc.),
 the Gaussian 92(TM) system (copyright 1992, Gaussian, Inc.),
 the Gaussian 90(TM) system (copyright 1990, Gaussian, Inc.),
 the Gaussian 88(TM) system (copyright 1988, Gaussian, Inc.),
 the Gaussian 86(TM) system (copyright 1986, Carnegie Mellon
 University), and the Gaussian 82(TM) system (copyright 1983,
 Carnegie Mellon University). Gaussian is a federally registered
 trademark of Gaussian, Inc.
  
 This software contains proprietary and confidential information,
 including trade secrets, belonging to Gaussian, Inc.
  
 This software is provided under written license and may be
 used, copied, transmitted, or stored only in accord with that
 written license.
  
 The following legend is applicable only to US Government
 contracts under FAR:
  
                    RESTRICTED RIGHTS LEGEND
  
 Use, reproduction and disclosure by the US Government is
 subject to restrictions as set forth in subparagraphs (a)
 and (c) of the Commercial Computer Software - Restricted
 Rights clause in FAR 52.227-19.
  
 Gaussian, Inc.
 340 Quinnipiac St., Bldg. 40, Wallingford CT 06492
  
  
 ---------------------------------------------------------------
 Warning -- This program may not be used in any manner that
 competes with the business of Gaussian, Inc. or will provide
 assistance to any competitor of Gaussian, Inc.  The licensee
 of this program is prohibited from giving any competitor of
 Gaussian, Inc. access to this program.  By using this program,
 the user acknowledges that Gaussian, Inc. is engaged in the
 business of creating and licensing software in the field of
 computational chemistry and represents and warrants to the
 licensee that it is not a competitor of Gaussian, Inc. and that
 it will not use this program in any manner prohibited above.
 ---------------------------------------------------------------
  

 Cite this work as:
 Gaussian 16, Revision C.02,
 M. J. Frisch, G. W. Trucks, H. B. Schlegel, G. E. Scuseria, 
 M. A. Robb, J. R. Cheeseman, G. Scalmani, V. Barone, 
 G. A. Petersson, H. Nakatsuji, X. Li, M. Caricato, A. V. Marenich, 
 J. Bloino, B. G. Janesko, R. Gomperts, B. Mennucci, H. P. Hratchian, 
 J. V. Ortiz, A. F. Izmaylov, J. L. Sonnenberg, D. Williams-Young, 
 F. Ding, F. Lipparini, F. Egidi, J. Goings, B. Peng, A. Petrone, 
 T. Henderson, D. Ranasinghe, V. G. Zakrzewski, J. Gao, N. Rega, 
 G. Zheng, W. Liang, M. Hada, M. Ehara, K. Toyota, R. Fukuda, 
 J. Hasegawa, M. Ishida, T. Nakajima, Y. Honda, O. Kitao, H. Nakai, 
 T. Vreven, K. Throssell, J. A. Montgomery, Jr., J. E. Peralta, 
 F. Ogliaro, M. J. Bearpark, J. J. Heyd, E. N. Brothers, K. N. Kudin, 
 V. N. Staroverov, T. A. Keith, R. Kobayashi, J. Normand, 
 K. Raghavachari, A. P. Rendell, J. C. Burant, S. S. Iyengar, 
 J. Tomasi, M. Cossi, J. M. Millam, M. Klene, C. Adamo, R. Cammi, 
 J. W. Ochterski, R. L. Martin, K. Morokuma, O. Farkas, 
 J. B. Foresman, and D. J. Fox, Gaussian, Inc., Wallingford CT, 2019.
 
 ******************************************
 Gaussian 16:  ES64L-G16RevC.02  7-Dec-2021
                 1-Feb-2025 
 ******************************************
 %chk=Ferrocene_NH4_0_gas
 SetSPE:  set environment variable "OMP_PROC_BIND" = "true"
 SetSPE:  set environment variable "OMP_PLACES" = "{0},{1},{2},{3},{4},{5},{6},{7},{8},{9},{10},{11},{12},{13},{14},{15},{16},{17},{18},{19},{20},{21},{22},{23},{24},{25},{26},{27},{28},{29},{30},{31},{32},{33},{34},{35},{36},{37},{38},{39},{40},{41},{42},{43},{44},{45},{46},{47},{48},{49},{50},{51},{52},{53},{54},{55},{56},{57},{58},{59},{60},{61},{62},{63},{64},{65},{66},{67},{68},{69},{70},{71},{72},{73},{74},{75},{76},{77},{78},{79},{80},{81},{82},{83},{84},{85},{86},{87},{88},{89},{90},{91},{92},{93},{94},{95},{96},{97},{98},{99},{100},{101},{102},{103},{104},{105},{106},{107},{108},{109},{110},{111},{112},{113},{114},{115},{116},{117},{118},{119},{120},{121},{122},{123},{124},{125},{126},{127}"
 SetLPE:    new flags="-opt 'Tsnet.Node.lindarsharg: ssh'  -nodelist 'i586.lcrc.anl.gov' -env GAUSS_MDEF=13421772800 -env GAUSS_EXEDIR="/gpfs/fs1/soft/improv/software/custom-built/gaussian/g16/bsd:/gpfs/fs1/soft/improv/software/custom-built/gaussian/g16" -env "OMP_PROC_BIND=true" -env "OMP_PLACES={0},{1},{2},{3},{4},{5},{6},{7},{8},{9},{10},{11},{12},{13},{14},{15},{16},{17},{18},{19},{20},{21},{22},{23},{24},{25},{26},{27},{28},{29},{30},{31},{32},{33},{34},{35},{36},{37},{38},{39},{40},{41},{42},{43},{44},{45},{46},{47},{48},{49},{50},{51},{52},{53},{54},{55},{56},{57},{58},{59},{60},{61},{62},{63},{64},{65},{66},{67},{68},{69},{70},{71},{72},{73},{74},{75},{76},{77},{78},{79},{80},{81},{82},{83},{84},{85},{86},{87},{88},{89},{90},{91},{92},{93},{94},{95},{96},{97},{98},{99},{100},{101},{102},{103},{104},{105},{106},{107},{108},{109},{110},{111},{112},{113},{114},{115},{116},{117},{118},{119},{120},{121},{122},{123},{124},{125},{126},{127}" -env GAUSS_ADEF="0,1,2,3,4,5,6,7,8,9,10,11,12,13,14,15,16,17,18,19,20,21,22,23,24,25,26,27,28,29,30,31,32,33,34,35,36,37,38,39,40,41,42,43,44,45,46,47,48,49,50,51,52,53,54,55,56,57,58,59,60,61,62,63,64,65,66,67,68,69,70,71,72,73,74,75,76,77,78,79,80,81,82,83,84,85,86,87,88,89,90,91,92,93,94,95,96,97,98,99,100,101,102,103,104,105,106,107,108,109,110,111,112,113,114,115,116,117,118,119,120,121,122,123,124,125,126,127""
 Will use up to    1 processors via Linda.
 ----------------------------------------------------------------------
 #p ub3lyp geom=allcheck guess=read chkbasis opt=(calcfc,cartesian) fre
 q scf=(novaracc,maxcycles=1000,fermi,xqc) empiricaldispersion=gd3
 ----------------------------------------------------------------------
 1/10=4,18=10,26=3,29=7,38=1/1,3;
 2/12=2,29=2,40=1/2;
 3/5=7,6=2,11=2,14=-4,25=1,30=1,67=1,71=2,74=-5,116=2,124=31,140=1/1,2,3;
 4/5=1/1;
 5/5=2,7=1000,8=3,13=1,22=13,38=6/2,8;
 8/6=4,10=90,11=11/1;
 11/6=1,8=1,9=11,15=111,16=1/1,2,10;
 10/6=1,13=1/2;
 6/7=2,8=2,9=2,10=2,28=1/1;
 7/7=1,10=1,25=1/1,2,3,16;
 1/10=4,18=10,26=3/3(2);
 2/29=1/2;
 99/12=1/99;
 2/29=1/2;
 3/5=7,6=1,11=2,14=-2,25=1,30=1,71=1,74=-5,82=7,116=2,124=31/1,2,3;
 4/5=5,16=3,69=1/1;
 5/5=2,7=1000,8=3,13=1,22=13,38=1/2,8;
 7/7=1/1,2,3,16;
 1/18=10,26=3/3(-5);
 2/29=1/2;
 6/7=2,8=2,9=2,10=2,19=2,28=1/1;
 99/9=1,12=1/99;
 Leave Link    1 at Sat Feb  1 16:16:43 2025, MaxMem=           0 cpu:               1.9 elap:               0.1
 (Enter /gpfs/fs1/soft/improv/software/custom-built/gaussian/g16/l101.exe)
 Structure from the checkpoint file:  "Ferrocene_NH4_0_gas.chk"
 -------------------
 Title Card Required
 -------------------
 Charge =  0 Multiplicity = 1
 No Z-Matrix found in chk file; cartesian coordinates used.
  C                                                -0.958868762087      0.617017305550     -0.737861797213
  H                                                -0.351256524744      1.509019793852     -0.754684828455
  C                                                -1.878640083243      0.213724103188     -1.746272876719
  H                                                -2.097112668246      0.744173626479     -2.662668765705
  C                                                -2.508230300738     -1.003612664294     -1.314451390703
  C                                                -0.998686788794     -0.351387335191      0.310708132156
  H                                                -0.429844267059     -0.313096985698      1.227709941545
  C                                                -1.952990841525     -1.349840681122     -0.032477390517
  H                                                -2.263867385934     -2.183473689599      0.576360823862
  C                                                -3.425613058234      2.264943310478      0.806603053492
  H                                                -2.819586450612      3.159359236790      0.811376164687
  C                                                -4.332564123090      1.868980179859     -0.222604484550
  H                                                -4.532264942892      2.414039013097     -1.134152519838
  C                                                -4.912274231314      0.621546005117      0.158400586120
  H                                                -5.622370932404      0.030132118386     -0.398762328285
  C                                                -3.450161851269      1.258808184508      1.819842038252
  H                                                -2.859036720311      1.257801366643      2.723424133841
  C                                                -4.367207680454      0.242779657299      1.417991275970
  H                                                -4.602679529815     -0.673037989098      1.937324696813
  Fe                                               -2.866028062386      0.456669151782      0.026530323441
  C                                                -3.646686786926     -1.669190672687     -1.995591597384
  H                                                -4.094427847515     -1.001850924966     -2.735457562636
  H                                                -4.407736556081     -1.974886023568     -1.287536364084
  N                                                -3.289016723351     -2.953200932903     -2.778528903488
  C                                                -2.717754778659     -3.991188099242     -1.851463161721
  H                                                -1.788813362215     -3.608112795220     -1.434781356642
  H                                                -3.442261909276     -4.181586210247     -1.062958819105
  H                                                -2.528409037656     -4.895830151679     -2.431398590537
  C                                                -2.305341268552     -2.640228766078     -3.855754628307
  H                                                -2.053396275666     -3.558266270687     -4.388938258432
  H                                                -2.751219888742     -1.921031088528     -4.544562886851
  H                                                -1.414736777656     -2.207328866927     -3.400629121521
  C                                                -4.564514967467     -3.484522016241     -3.369491868026
  H                                                -4.980727742576     -2.728566604938     -4.036709292359
  H                                                -4.338619384476     -4.392690015849     -3.930952207369
  H                                                -5.253391443981     -3.701708448796     -2.553029517756
  P                                                -5.949242919615     -3.459397904488      0.645405757626
  F                                                -6.221492787270     -2.396481450380      1.816234281107
  F                                                -6.208983205230     -2.279334274620     -0.476268000460
  F                                                -7.485963527166     -3.866832319525      0.570704459471
  F                                                -5.599397457954     -4.480039020676     -0.600111442573
  F                                                -5.630209550113     -4.617948723223      1.691782085423
  F                                                -4.352769476709     -3.026436956558      0.649876157428
 Recover connectivity data from disk.
 ITRead=  0  0  0  0  0  0  0  0  0  0  0  0  0  0  0  0  0  0  0  0
 ITRead=  0  0  0  0  0  0  0  0  0  0  0  0  0  0  0  0  0  0  0  0
 ITRead=  0  0  0
 MicOpt= -1 -1 -1 -1 -1 -1 -1 -1 -1 -1 -1 -1 -1 -1 -1 -1 -1 -1 -1 -1
 MicOpt= -1 -1 -1 -1 -1 -1 -1 -1 -1 -1 -1 -1 -1 -1 -1 -1 -1 -1 -1 -1
 MicOpt= -1 -1 -1
 NAtoms=     43 NQM=       43 NQMF=       0 NMMI=      0 NMMIF=      0
                NMic=       0 NMicF=      0.
                    Isotopes and Nuclear Properties:
 (Nuclear quadrupole moments (NQMom) in fm**2, nuclear magnetic moments (NMagM)
  in nuclear magnetons)

  Atom         1           2           3           4           5           6           7           8           9          10
 IAtWgt=          12           1          12           1          12          12           1          12           1          12
 AtmWgt=  12.0000000   1.0078250  12.0000000   1.0078250  12.0000000  12.0000000   1.0078250  12.0000000   1.0078250  12.0000000
 NucSpn=           0           1           0           1           0           0           1           0           1           0
 AtZEff=   3.6000000   1.0000000   3.6000000   1.0000000   3.6000000   3.6000000   1.0000000   3.6000000   1.0000000   3.6000000
 NQMom=    0.0000000   0.0000000   0.0000000   0.0000000   0.0000000   0.0000000   0.0000000   0.0000000   0.0000000   0.0000000
 NMagM=    0.0000000   2.7928460   0.0000000   2.7928460   0.0000000   0.0000000   2.7928460   0.0000000   2.7928460   0.0000000
 AtZNuc=   6.0000000   1.0000000   6.0000000   1.0000000   6.0000000   6.0000000   1.0000000   6.0000000   1.0000000   6.0000000

  Atom        11          12          13          14          15          16          17          18          19          20
 IAtWgt=           1          12           1          12           1          12           1          12           1          56
 AtmWgt=   1.0078250  12.0000000   1.0078250  12.0000000   1.0078250  12.0000000   1.0078250  12.0000000   1.0078250  55.9349393
 NucSpn=           1           0           1           0           1           0           1           0           1           0
 AtZEff=   1.0000000   3.6000000   1.0000000   3.6000000   1.0000000   3.6000000   1.0000000   3.6000000   1.0000000  25.2200000
 NQMom=    0.0000000   0.0000000   0.0000000   0.0000000   0.0000000   0.0000000   0.0000000   0.0000000   0.0000000   0.0000000
 NMagM=    2.7928460   0.0000000   2.7928460   0.0000000   2.7928460   0.0000000   2.7928460   0.0000000   2.7928460   0.0000000
 AtZNuc=   1.0000000   6.0000000   1.0000000   6.0000000   1.0000000   6.0000000   1.0000000   6.0000000   1.0000000  26.0000000

  Atom        21          22          23          24          25          26          27          28          29          30
 IAtWgt=          12           1           1          14          12           1           1           1          12           1
 AtmWgt=  12.0000000   1.0078250   1.0078250  14.0030740  12.0000000   1.0078250   1.0078250   1.0078250  12.0000000   1.0078250
 NucSpn=           0           1           1           2           0           1           1           1           0           1
 AtZEff=   3.6000000   1.0000000   1.0000000   4.5500000   3.6000000   1.0000000   1.0000000   1.0000000   3.6000000   1.0000000
 NQMom=    0.0000000   0.0000000   0.0000000   2.0440000   0.0000000   0.0000000   0.0000000   0.0000000   0.0000000   0.0000000
 NMagM=    0.0000000   2.7928460   2.7928460   0.4037610   0.0000000   2.7928460   2.7928460   2.7928460   0.0000000   2.7928460
 AtZNuc=   6.0000000   1.0000000   1.0000000   7.0000000   6.0000000   1.0000000   1.0000000   1.0000000   6.0000000   1.0000000

  Atom        31          32          33          34          35          36          37          38          39          40
 IAtWgt=           1           1          12           1           1           1          31          19          19          19
 AtmWgt=   1.0078250   1.0078250  12.0000000   1.0078250   1.0078250   1.0078250  30.9737634  18.9984032  18.9984032  18.9984032
 NucSpn=           1           1           0           1           1           1           1           1           1           1
 AtZEff=   1.0000000   1.0000000   3.6000000   1.0000000   1.0000000   1.0000000  12.9400000   6.7500000   6.7500000   6.7500000
 NQMom=    0.0000000   0.0000000   0.0000000   0.0000000   0.0000000   0.0000000   0.0000000   0.0000000   0.0000000   0.0000000
 NMagM=    2.7928460   2.7928460   0.0000000   2.7928460   2.7928460   2.7928460   1.1316000   2.6288670   2.6288670   2.6288670
 AtZNuc=   1.0000000   1.0000000   6.0000000   1.0000000   1.0000000   1.0000000  15.0000000   9.0000000   9.0000000   9.0000000

  Atom        41          42          43
 IAtWgt=          19          19          19
 AtmWgt=  18.9984032  18.9984032  18.9984032
 NucSpn=           1           1           1
 AtZEff=   6.7500000   6.7500000   6.7500000
 NQMom=    0.0000000   0.0000000   0.0000000
 NMagM=    2.6288670   2.6288670   2.6288670
 AtZNuc=   9.0000000   9.0000000   9.0000000
 Leave Link  101 at Sat Feb  1 16:16:44 2025, MaxMem= 13421772800 cpu:               0.4 elap:               0.1
 (Enter /gpfs/fs1/soft/improv/software/custom-built/gaussian/g16/l103.exe)

 GradGradGradGradGradGradGradGradGradGradGradGradGradGradGradGradGradGrad
 Berny optimization.
 Initialization pass.
 No Z-matrix variables, so optimization will use Cartesian coordinates.
 Trust Radius=3.00D-01 FncErr=1.00D-07 GrdErr=1.00D-06 EigMax=2.50D+02 EigMin=1.00D-04
 Number of steps in this run=    139 maximum allowed number of steps=    258.
 GradGradGradGradGradGradGradGradGradGradGradGradGradGradGradGradGradGrad

 Leave Link  103 at Sat Feb  1 16:16:44 2025, MaxMem= 13421772800 cpu:               0.4 elap:               0.1
 (Enter /gpfs/fs1/soft/improv/software/custom-built/gaussian/g16/l202.exe)
                          Input orientation:                          
 ---------------------------------------------------------------------
 Center     Atomic      Atomic             Coordinates (Angstroms)
 Number     Number       Type             X           Y           Z
 ---------------------------------------------------------------------
      1          6           0       -0.958869    0.617017   -0.737862
      2          1           0       -0.351257    1.509020   -0.754685
      3          6           0       -1.878640    0.213724   -1.746273
      4          1           0       -2.097113    0.744174   -2.662669
      5          6           0       -2.508230   -1.003613   -1.314451
      6          6           0       -0.998687   -0.351387    0.310708
      7          1           0       -0.429844   -0.313097    1.227710
      8          6           0       -1.952991   -1.349841   -0.032477
      9          1           0       -2.263867   -2.183474    0.576361
     10          6           0       -3.425613    2.264943    0.806603
     11          1           0       -2.819586    3.159359    0.811376
     12          6           0       -4.332564    1.868980   -0.222604
     13          1           0       -4.532265    2.414039   -1.134153
     14          6           0       -4.912274    0.621546    0.158401
     15          1           0       -5.622371    0.030132   -0.398762
     16          6           0       -3.450162    1.258808    1.819842
     17          1           0       -2.859037    1.257801    2.723424
     18          6           0       -4.367208    0.242780    1.417991
     19          1           0       -4.602680   -0.673038    1.937325
     20         26           0       -2.866028    0.456669    0.026530
     21          6           0       -3.646687   -1.669191   -1.995592
     22          1           0       -4.094428   -1.001851   -2.735458
     23          1           0       -4.407737   -1.974886   -1.287536
     24          7           0       -3.289017   -2.953201   -2.778529
     25          6           0       -2.717755   -3.991188   -1.851463
     26          1           0       -1.788813   -3.608113   -1.434781
     27          1           0       -3.442262   -4.181586   -1.062959
     28          1           0       -2.528409   -4.895830   -2.431399
     29          6           0       -2.305341   -2.640229   -3.855755
     30          1           0       -2.053396   -3.558266   -4.388938
     31          1           0       -2.751220   -1.921031   -4.544563
     32          1           0       -1.414737   -2.207329   -3.400629
     33          6           0       -4.564515   -3.484522   -3.369492
     34          1           0       -4.980728   -2.728567   -4.036709
     35          1           0       -4.338619   -4.392690   -3.930952
     36          1           0       -5.253391   -3.701708   -2.553030
     37         15           0       -5.949243   -3.459398    0.645406
     38          9           0       -6.221493   -2.396481    1.816234
     39          9           0       -6.208983   -2.279334   -0.476268
     40          9           0       -7.485964   -3.866832    0.570704
     41          9           0       -5.599397   -4.480039   -0.600111
     42          9           0       -5.630210   -4.617949    1.691782
     43          9           0       -4.352769   -3.026437    0.649876
 ---------------------------------------------------------------------
                    Distance matrix (angstroms):
                    1          2          3          4          5
     1  C    0.000000
     2  H    1.079418   0.000000
     3  C    1.423207   2.234712   0.000000
     4  H    2.239788   2.696925   1.081151   0.000000
     5  C    2.315042   3.358451   1.436928   2.245321   0.000000
     6  C    1.427898   2.239496   2.307561   3.353769   2.311982
     7  H    2.237957   2.693729   3.349795   4.362643   3.355456
     8  C    2.313953   3.355625   2.321068   3.365052   1.439313
     9  H    3.357522   4.366265   3.359998   4.369238   2.242087
    10  C    3.344527   3.529973   3.621851   4.014163   4.002989
    11  H    3.510828   3.356906   4.012943   4.292328   4.684701
    12  C    3.635206   4.032802   3.329141   3.495189   3.573809
    13  H    4.019390   4.294635   3.501114   3.324873   3.976125
    14  C    4.053729   4.735422   3.605140   3.987305   3.254207
    15  H    4.712502   5.486204   3.983091   4.250009   3.406609
    16  C    3.627711   4.036584   4.034731   4.710466   3.978640
    17  H    4.000218   4.295266   4.693556   5.463912   4.641282
    18  C    4.050251   4.738328   4.025715   4.696436   3.532072
    19  H    4.700875   5.484787   4.666436   5.426444   3.882016
    20  Fe   2.060889   2.835809   2.043719   2.811704   2.014615
    21  C    3.746064   4.743494   2.594902   2.944571   1.484261
    22  H    4.054979   4.923339   2.714005   2.653897   2.129621
    23  H    4.349114   5.373692   3.375912   3.824037   2.133593
    24  N    4.726560   5.712950   3.617199   3.886469   2.560087
    25  C    5.056614   6.087325   4.289110   4.844265   3.042678
    26  H    4.361907   5.358558   3.835562   4.532676   2.704711
    27  H    5.412904   6.483236   4.714932   5.350851   3.321924
    28  H    5.976873   6.969467   5.196070   5.661196   4.049362
    29  C    4.705730   5.536366   3.574498   3.594578   3.029505
    30  H    5.653436   6.463936   4.608919   4.636044   4.023133
    31  H    4.913775   5.646968   3.626155   3.327566   3.366648
    32  H    3.908334   4.684363   2.968771   3.117946   2.645146
    33  C    6.062078   7.037345   4.850339   4.946670   3.821833
    34  H    6.184713   7.082431   4.850373   4.718384   4.061945
    35  H    6.834889   7.798584   5.660687   5.746326   4.656420
    36  H    6.355246   7.376765   5.231674   5.453438   4.043477
    37  P    6.590480   7.614649   5.981786   6.591834   4.659666
    38  F    6.580258   7.504814   6.193949   6.850898   5.052682
    39  F    6.001749   6.981555   5.155592   5.552425   4.003197
    40  F    8.026221   9.031084   7.311730   7.794600   6.043978
    41  F    6.894452   7.964653   6.098289   6.619104   4.706499
    42  F    7.424922   8.449396   7.017090   7.758632   5.643369
    43  F    5.169056   6.209289   4.728794   5.502585   3.369381
                    6          7          8          9         10
     6  C    0.000000
     7  H    1.079787   0.000000
     8  C    1.423159   2.232238   0.000000
     9  H    2.242274   2.699297   1.078087   0.000000
    10  C    3.602925   3.974702   3.992410   4.603377   0.000000
    11  H    3.986438   4.235818   4.668614   5.376795   1.080403
    12  C    4.040940   4.700648   4.007409   4.619549   1.427801
    13  H    4.713956   5.463105   4.693946   5.404499   2.239071
    14  C    4.035587   4.702038   3.560921   3.880320   2.308914
    15  H    4.693331   5.452114   3.937365   4.138896   3.357534
    16  C    3.298476   3.455984   3.532373   3.847447   1.428133
    17  H    3.445517   3.256664   3.900732   4.099571   2.238202
    18  C    3.595281   3.980959   3.235544   3.319501   2.312908
    19  H    3.967128   4.248019   3.370316   3.098981   3.360915
    20  Fe   2.054428   2.823183   2.024993   2.763198   2.047316
    21  C    3.750670   4.751499   2.612357   2.965066   4.835140
    22  H    4.391565   5.441530   3.465970   3.964256   4.864715
    23  H    4.100214   4.991156   2.826947   2.848473   4.829714
    24  N    4.643106   5.585245   3.449134   3.591476   6.332524
    25  C    4.569281   5.314527   3.297012   3.060747   6.834147
    26  H    3.778531   4.448908   2.663307   2.509973   6.495822
    27  H    4.746414   5.411749   3.361339   2.840499   6.712174
    28  H    5.523691   6.228523   4.319719   4.058753   7.909887
    29  C    4.930066   5.897003   4.050519   4.455782   6.859541
    30  H    5.786464   6.686836   4.885282   5.156408   7.923787
    31  H    5.395258   6.425992   4.617612   5.150752   6.827310
    32  H    4.170329   5.097024   3.517023   4.066699   6.461087
    33  C    6.006291   6.948935   4.744743   4.749259   7.196751
    34  H    6.356703   7.366081   5.205953   5.381345   7.128197
    35  H    6.743809   7.650712   5.490743   5.431492   8.222049
    36  H    6.126023   7.003091   4.772537   4.586434   7.087231
    37  P    5.854892   6.379816   4.569441   3.900608   6.258017
    38  F    5.807471   6.183045   4.767945   4.152765   5.528578
    39  F    5.611016   6.337829   4.378856   4.084257   5.481183
    40  F    7.383137   7.927768   6.108425   5.486713   7.358041
    41  F    6.248351   6.886844   4.839073   4.217115   7.224886
    42  F    6.446853   6.766898   5.213016   4.301522   7.281345
    43  F    4.303579   4.804732   3.005914   2.253775   5.374280
                   11         12         13         14         15
    11  H    0.000000
    12  C    2.241271   0.000000
    13  H    2.697008   1.080689   0.000000
    14  C    3.353538   1.427347   2.242350   0.000000
    15  H    4.371739   2.252997   2.722525   1.079091   0.000000
    16  C    2.242035   2.307061   3.351356   2.303099   3.339213
    17  H    2.696925   3.350210   4.360903   3.346633   4.346405
    18  C    3.357015   2.310256   3.354855   1.423773   2.218388
    19  H    4.374294   3.346657   4.355339   2.221794   2.644149
    20  Fe   2.814724   2.051199   2.820430   2.057109   2.821389
    21  C    5.646066   4.016536   4.266039   3.389523   3.056287
    22  H    5.614349   3.822671   3.797918   3.417412   2.976532
    23  H    5.769587   3.989366   4.393370   3.014424   2.507061
    24  N    7.104307   5.556543   5.749513   4.902992   4.473042
    25  C    7.630951   6.293041   6.695813   5.489334   5.168960
    26  H    7.204609   6.159431   6.624441   5.494019   5.385752
    27  H    7.601996   6.173183   6.685465   5.169404   4.788800
    28  H    8.688294   7.341417   7.689764   6.544564   6.161925
    29  C    7.462022   6.135338   6.157266   5.792125   5.484916
    30  H    8.529760   7.211654   7.239258   6.806049   6.444819
    31  H    7.382488   5.961892   5.796193   5.766517   5.407237
    32  H    6.965338   5.935474   6.017719   5.736026   5.632195
    33  C    8.041492   6.214233   6.307995   5.424643   4.721979
    34  H    7.927303   6.008739   5.922191   5.369068   4.610508
    35  H    9.046026   7.277389   7.361464   6.495725   5.803942
    36  H    8.019781   6.108304   6.319462   5.114562   4.324771
    37  P    7.323267   5.635486   6.298565   4.238700   3.657041
    38  F    6.591667   5.091078   5.890618   3.683878   3.339702
    39  F    6.536469   4.560023   5.027121   3.240272   2.384063
    40  F    8.438031   6.593392   7.147043   5.190319   4.427096
    41  F    8.251064   6.485169   6.996591   5.203234   4.514722
    42  F    8.316323   6.886872   7.657692   5.506269   5.096577
    43  F    6.375014   4.972599   5.728329   3.723221   3.471908
                   16         17         18         19         20
    16  C    0.000000
    17  H    1.079764   0.000000
    18  C    1.426454   2.238080   0.000000
    19  H    2.252583   2.717790   1.078831   0.000000
    20  Fe   2.049538   2.813378   2.058022   2.818392   0.000000
    21  C    4.813453   5.608635   3.978358   4.168222   3.036064
    22  H    5.126052   6.035860   4.344497   4.711829   3.356311
    23  H    4.585796   5.379270   3.498509   3.483180   3.164822
    24  N    6.237949   6.941823   5.384011   5.400382   4.435594
    25  C    6.448051   6.964298   5.597902   5.377544   4.830350
    26  H    6.086014   6.489466   5.442040   5.282386   4.451772
    27  H    6.156987   6.653103   5.156128   4.760061   4.799213
    28  H    7.536727   8.034220   6.678645   6.420305   5.899547
    29  C    6.980365   7.667256   6.354166   6.535088   4.997728
    30  H    7.981486   8.627240   7.315880   7.405740   6.022993
    31  H    7.148814   7.933488   6.545651   6.855673   5.153788
    32  H    6.588655   7.183116   6.159482   6.403966   4.576959
    33  C    7.118297   7.907080   6.070560   6.005681   5.472734
    34  H    7.248516   8.129705   6.241720   6.329076   5.579211
    35  H    8.111746   8.854261   7.078107   6.952856   6.430123
    36  H    6.854223   7.626968   5.666861   5.455232   5.444790
    37  P    5.466825   6.009950   4.099493   3.353519   5.022430
    38  F    4.587094   5.048058   3.250026   2.367589   4.754225
    39  F    5.040007   5.828508   3.652590   3.314488   4.349008
    40  F    6.642306   7.232187   5.228140   4.514565   6.350795
    41  F    6.588608   7.174836   5.281671   4.682444   5.677594
    42  F    6.269392   6.577851   5.029594   4.083923   6.013777
    43  F    4.532863   4.988541   3.358271   2.694154   3.838097
                   21         22         23         24         25
    21  C    0.000000
    22  H    1.092344   0.000000
    23  H    1.083508   1.772410   0.000000
    24  N    1.545833   2.111471   2.105159   0.000000
    25  C    2.505067   3.407758   2.690637   1.504396   0.000000
    26  H    2.743286   3.714864   3.089963   2.117824   1.087797
    27  H    2.687699   3.651478   2.419112   2.115560   1.087613
    28  H    3.442626   4.208080   3.656803   2.114907   1.091125
    29  C    2.490448   2.672111   3.385039   1.491973   2.452011
    30  H    3.440246   3.665388   4.203416   2.118084   2.658491
    31  H    2.713400   2.433508   3.654473   2.115059   3.396977
    32  H    2.691714   3.012702   3.671136   2.110985   2.698134
    33  C    2.454677   2.605117   2.576455   1.502809   2.443695
    34  H    2.658591   2.336735   2.907629   2.120227   3.389773
    35  H    3.412014   3.603696   3.583043   2.121762   2.666961
    36  H    2.650163   2.943757   2.301852   2.114209   2.646781
    37  P    3.934650   4.572758   2.883797   4.365360   4.118212
    38  F    4.657101   5.214144   3.619509   5.479161   5.317074
    39  F    3.040721   3.347722   1.998833   3.778982   4.124352
    40  F    5.114250   5.535462   4.063004   5.446692   5.349596
    41  F    3.696121   4.349992   2.858041   3.523435   3.179421
    42  F    5.121158   5.919057   4.166120   5.313779   4.629234
    43  F    3.056006   3.952995   2.205073   3.590389   3.140178
                   26         27         28         29         30
    26  H    0.000000
    27  H    1.789138   0.000000
    28  H    1.788425   1.793850   0.000000
    29  C    2.657953   3.386455   2.676992   0.000000
    30  H    2.966400   3.657816   2.417990   1.091125   0.000000
    31  H    3.666499   4.208232   3.655754   1.091105   1.786537
    32  H    2.442680   3.670593   3.067200   1.089825   1.791556
    33  C    3.385690   2.658091   2.649063   2.460315   2.711167
    34  H    4.210932   3.649840   3.645260   2.682954   3.062962
    35  H    3.653483   3.012210   2.403887   2.685330   2.475532
    36  H    3.641777   2.393906   2.977625   3.393351   3.692033
    37  P    4.653866   3.118496   4.819976   5.848889   6.366476
    38  F    5.629014   4.381835   6.158571   6.896892   7.564849
    39  F    4.714054   3.408448   4.920895   5.175867   5.849236
    40  F    6.045364   4.372579   5.886324   6.923651   7.362476
    41  F    3.997184   2.226328   3.599648   4.983465   5.270579
    42  F    5.054848   3.544873   5.167108   6.763231   7.133840
    43  F    3.355297   2.257697   4.039452   4.964054   5.564136
                   31         32         33         34         35
    31  H    0.000000
    32  H    1.782341   0.000000
    33  C    2.667084   3.399014   0.000000
    34  H    2.425023   3.659587   1.090817   0.000000
    35  H    3.000909   3.688650   1.091346   1.786839   0.000000
    36  H    3.660311   4.205575   1.090106   1.795176   1.792466
    37  P    6.287265   6.204822   4.247058   4.836769   4.940465
    38  F    7.261445   7.096221   5.551681   5.992222   6.368690
    39  F    5.351218   5.616215   3.539421   3.793041   4.460872
    40  F    7.236705   7.442126   4.919977   5.366574   5.517899
    41  F    5.497211   5.524445   3.119536   3.906483   3.562540
    42  F    7.379292   7.036615   5.294984   6.066894   5.773568
    43  F    5.546988   5.070460   4.050925   4.737841   4.780255
                   36         37         38         39         40
    36  H    0.000000
    37  P    3.282211   0.000000
    38  F    4.661685   1.604603   0.000000
    39  F    2.692442   1.648687   2.295528   0.000000
    40  F    3.843092   1.591569   2.304813   2.290629   0.000000
    41  F    2.130589   1.647851   3.250683   2.286927   2.303468
    42  F    4.358889   1.593401   2.302177   3.241070   2.294518
    43  F    3.394955   1.654147   2.291149   2.296060   3.244909
                   41         42         43
    41  F    0.000000
    42  F    2.296246   0.000000
    43  F    2.286812   2.291360   0.000000
 Stoichiometry    C14H20F6FeNP
 Framework group  C1[X(C14H20F6FeNP)]
 Deg. of freedom   123
 Full point group                 C1      NOp   1
 RotChk:  IX=0 Diff= 1.63D-15
 Largest Abelian subgroup         C1      NOp   1
 Largest concise Abelian subgroup C1      NOp   1
                         Standard orientation:                         
 ---------------------------------------------------------------------
 Center     Atomic      Atomic             Coordinates (Angstroms)
 Number     Number       Type             X           Y           Z
 ---------------------------------------------------------------------
      1          6           0       -3.525071    0.971683    0.804925
      2          1           0       -4.604297    0.954297    0.794307
      3          6           0       -2.688172    1.504806   -0.215319
      4          1           0       -3.016145    1.961033   -1.138996
      5          6           0       -1.321156    1.289269    0.171428
      6          6           0       -2.687481    0.441956    1.832897
      7          1           0       -3.025984   -0.051795    2.731543
      8          6           0       -1.329536    0.627945    1.449787
      9          1           0       -0.455625    0.281930    1.977828
     10          6           0       -3.411348   -2.010063   -0.705742
     11          1           0       -4.491133   -2.046579   -0.705945
     12          6           0       -2.588309   -1.456661   -1.732859
     13          1           0       -2.938930   -1.000777   -2.647804
     14          6           0       -1.226675   -1.597128   -1.328456
     15          1           0       -0.346857   -1.266866   -1.858819
     16          6           0       -2.552580   -2.490717    0.329175
     17          1           0       -2.872170   -2.949379    1.252961
     18          6           0       -1.203134   -2.233558   -0.055061
     19          1           0       -0.307703   -2.442881    0.509086
     20         26           0       -2.276003   -0.480090    0.043709
     21          6           0       -0.136430    1.547050   -0.684728
     22          1           0       -0.439791    1.705074   -1.722136
     23          1           0        0.568573    0.725338   -0.642898
     24          7           0        0.687394    2.801034   -0.312656
     25          6           0        1.226341    2.678760    1.086555
     26          1           0        0.387081    2.637697    1.777394
     27          1           0        1.817979    1.768147    1.146973
     28          1           0        1.842267    3.556110    1.290142
     29          6           0       -0.160498    4.023644   -0.423519
     30          1           0        0.431309    4.896848   -0.144535
     31          1           0       -0.506096    4.122820   -1.453682
     32          1           0       -1.017426    3.915994    0.241163
     33          6           0        1.843676    2.874590   -1.269754
     34          1           0        1.451445    2.957100   -2.284263
     35          1           0        2.441810    3.755175   -1.029254
     36          1           0        2.437260    1.967263   -1.156856
     37         15           0        2.714406   -1.039877    0.128917
     38          9           0        2.030674   -2.491463    0.141510
     39          9           0        1.875229   -0.664562   -1.239691
     40          9           0        3.932150   -1.550793   -0.759428
     41          9           0        3.317132    0.493611    0.105517
     42          9           0        3.500075   -1.334008    1.483590
     43          9           0        1.439729   -0.453091    1.004750
 ---------------------------------------------------------------------
 Rotational constants (GHZ):           0.3272680           0.1919235           0.1436264
 Leave Link  202 at Sat Feb  1 16:16:44 2025, MaxMem= 13421772800 cpu:               0.6 elap:               0.0
 (Enter /gpfs/fs1/soft/improv/software/custom-built/gaussian/g16/l301.exe)
 Basis read from chk: "Ferrocene_NH4_0_gas.chk" (6D, 7F)
 No pseudopotential information found on chk file.
 There are   850 symmetry adapted cartesian basis functions of A   symmetry.
 There are   772 symmetry adapted basis functions of A   symmetry.
   772 basis functions,  1261 primitive gaussians,   850 cartesian basis functions
   103 alpha electrons      103 beta electrons
       nuclear repulsion energy      3123.3692523349 Hartrees.
 IExCor=  402 DFT=T Ex+Corr=B3LYP ExCW=0 ScaHFX=  0.200000
 ScaDFX=  0.800000  0.720000  1.000000  0.810000 ScalE2=  1.000000  1.000000
 IRadAn=      5 IRanWt=     -1 IRanGd=            0 ICorTp=0 IEmpDi=131
 NAtoms=   43 NActive=   43 NUniq=   43 SFac= 1.00D+00 NAtFMM=   60 NAOKFM=F Big=F
 Integral buffers will be    131072 words long.
 Raffenetti 2 integral format.
 Two-electron integral symmetry is turned on.
 R6Disp:  Grimme-D3 Dispersion energy=       -0.0633886960 Hartrees.
 Nuclear repulsion after empirical dispersion term =     3123.3058636389 Hartrees.
 No density basis found on file  20724.
 Leave Link  301 at Sat Feb  1 16:16:45 2025, MaxMem= 13421772800 cpu:               0.5 elap:               0.1
 (Enter /gpfs/fs1/soft/improv/software/custom-built/gaussian/g16/l302.exe)
 NPDir=0 NMtPBC=     1 NCelOv=     1 NCel=       1 NClECP=     1 NCelD=      1
         NCelK=      1 NCelE2=     1 NClLst=     1 CellRange=     0.0.
 One-electron integrals computed using PRISM.
 One-electron integral symmetry used in STVInt
 NBasis=   772 RedAO= T EigKep=  1.99D-04  NBF=   772
 NBsUse=   772 1.00D-06 EigRej= -1.00D+00 NBFU=   772
 Precomputing XC quadrature grid using
 IXCGrd= 4 IRadAn=           5 IRanWt=          -1 IRanGd=           0 AccXCQ= 0.00D+00.
 Generated NRdTot=       0 NPtTot=           0 NUsed=           0 NTot=          32
 NSgBfM=   850   850   850   850   850 MxSgAt=    43 MxSgA2=    43.
 Leave Link  302 at Sat Feb  1 16:16:46 2025, MaxMem= 13421772800 cpu:              50.8 elap:               0.8
 (Enter /gpfs/fs1/soft/improv/software/custom-built/gaussian/g16/l303.exe)
 DipDrv:  MaxL=1.
 Leave Link  303 at Sat Feb  1 16:16:46 2025, MaxMem= 13421772800 cpu:               2.5 elap:               0.1
 (Enter /gpfs/fs1/soft/improv/software/custom-built/gaussian/g16/l401.exe)
 Initial guess from the checkpoint file:  "Ferrocene_NH4_0_gas.chk"
 B after Tr=     0.000000   -0.000000    0.000000
         Rot=    1.000000   -0.000000   -0.000000    0.000000 Ang=   0.00 deg.
 Guess basis will be translated and rotated to current coordinates.
 JPrj=2 DoOrth=T DoCkMO=T.
 Initial guess <Sx>= 0.0000 <Sy>= 0.0000 <Sz>= 0.0000 <S**2>= 0.0000 S= 0.0000
 Leave Link  401 at Sat Feb  1 16:16:47 2025, MaxMem= 13421772800 cpu:              40.0 elap:               1.1
 (Enter /gpfs/fs1/soft/improv/software/custom-built/gaussian/g16/l502.exe)
 Integral symmetry usage will be decided dynamically.
 UHF open shell SCF:
 Using DIIS extrapolation, IDIIS=    10.
 NGot= 13421772800 LenX= 13420209921 LenY= 13419486571
 Requested convergence on RMS density matrix=1.00D-08 within 128 cycles.
 Requested convergence on MAX density matrix=1.00D-06.
 Requested convergence on             energy=1.00D-06.
 Level shift goal  0.100 maximum shift  0.100.
 No special actions if energy rises.
 Dynamic level shift is on during FON iterations.
 Fock matrices will be formed incrementally for  20 cycles.

 Cycle   1  Pass 1  IDiag  1:
 FoFJK:  IHMeth= 1 ICntrl=       0 DoSepK=F KAlg= 0 I1Cent=           0 FoldK=F
 IRaf= 790000000 NMat=       1 IRICut=       1 DoRegI=T DoRafI=F ISym2E= 0 IDoP0=0 IntGTp=1.
 FoFCou: FMM=F IPFlag=           0 FMFlag=      100000 FMFlg1=           0
         NFxFlg=           0 DoJE=F BraDBF=F KetDBF=F FulRan=T
         wScrn=  0.000000 ICntrl=         0 IOpCl=  1 I1Cent=           0 NGrid=           0
         NMat0=    1 NMatS0=      1 NMatT0=    0 NMatD0=    1 NMtDS0=    0 NMtDT0=    0
 Symmetry not used in FoFCou.
 E= -2804.64909960374    
 DIIS: error= 8.52D-09 at cycle   1 NSaved=   1.
 NSaved= 1 IEnMin= 1 EnMin= -2804.64909960374     IErMin= 1 ErrMin= 8.52D-09
 ErrMax= 8.52D-09  0.00D+00 EMaxC= 1.00D+00 BMatC= 5.47D-13 BMatP= 5.47D-13
 IDIUse=1 WtCom= 1.00D+00 WtEn= 0.00D+00
 Coeff-Com:  0.100D+01
 Coeff:      0.100D+01
 Gap=     0.196 Goal=     0.100 Shift=    0.000
 Gap=     0.196 Goal=     0.100 Shift=    0.000
 RMSDP=1.52D-09 MaxDP=9.99D-08              OVMax= 2.90D-07

 SCF Done:  E(UB3LYP) =  -2804.64909960     A.U. after    1 cycles
            NFock=  1  Conv=0.15D-08     -V/T= 2.0042
 <Sx>= 0.0000 <Sy>= 0.0000 <Sz>= 0.0000 <S**2>=-0.0000 S=-0.0000
 <L.S>=  0.00000000000    
 KE= 2.792907589358D+03 PE=-1.288683404944D+04 EE= 4.165971496838D+03
 Annihilation of the first spin contaminant:
 S**2 before annihilation    -0.0000,   after    -0.0000
 Leave Link  502 at Sat Feb  1 16:16:55 2025, MaxMem= 13421772800 cpu:             720.0 elap:               7.0
 (Enter /gpfs/fs1/soft/improv/software/custom-built/gaussian/g16/l508.exe)
 QCSCF skips out because SCF is already converged.
 Leave Link  508 at Sat Feb  1 16:16:55 2025, MaxMem= 13421772800 cpu:               0.2 elap:               0.0
 (Enter /gpfs/fs1/soft/improv/software/custom-built/gaussian/g16/l801.exe)
 DoSCS=F DFT=T ScalE2(SS,OS)=  1.000000  1.000000
 Range of M.O.s used for correlation:     1   772
 NBasis=   772 NAE=   103 NBE=   103 NFC=     0 NFV=     0
 NROrb=    772 NOA=   103 NOB=   103 NVA=   669 NVB=   669

 **** Warning!!: The largest alpha MO coefficient is  0.58532277D+02


 **** Warning!!: The largest beta MO coefficient is  0.58532277D+02

 Leave Link  801 at Sat Feb  1 16:16:55 2025, MaxMem= 13421772800 cpu:               0.4 elap:               0.0
 (Enter /gpfs/fs1/soft/improv/software/custom-built/gaussian/g16/l1101.exe)
 Using compressed storage, NAtomX=    43.
 Will process     44 centers per pass.
 R6Disp: Adding Grimme-D3 dispersion energy 1st derivatives to the gradient.
 Leave Link 1101 at Sat Feb  1 16:16:58 2025, MaxMem= 13421772800 cpu:             219.7 elap:               2.3
 (Enter /gpfs/fs1/soft/improv/software/custom-built/gaussian/g16/l1102.exe)
 Symmetrizing basis deriv contribution to polar:
 IMax=3 JMax=2 DiffMx= 0.00D+00
 Leave Link 1102 at Sat Feb  1 16:16:58 2025, MaxMem= 13421772800 cpu:               1.5 elap:               0.1
 (Enter /gpfs/fs1/soft/improv/software/custom-built/gaussian/g16/l1110.exe)
 Forming Gx(P) for the SCF density, NAtomX=    43.
 Integral derivatives from FoFJK, PRISM(SPDF).
 Do as many integral derivatives as possible in FoFJK.
 G2DrvN: MDV=   13421767719.
 G2DrvN: will do    22 centers at a time, making    2 passes.
 G2DrvN:  IPasSy=1 do centers    0 through   21.
 Calling FoFCou, ICntrl=  3107 FMM=F I1Cent=   0 AccDes= 0.00D+00.
 FoFJK:  IHMeth= 1 ICntrl=    3107 DoSepK=F KAlg= 0 I1Cent=           0 FoldK=F
 IRaf=         0 NMat=       1 IRICut=       1 DoRegI=T DoRafI=F ISym2E= 0 IDoP0=0 IntGTp=1.
 FoFCou: FMM=F IPFlag=           0 FMFlag=      100000 FMFlg1=           0
         NFxFlg=           0 DoJE=F BraDBF=F KetDBF=F FulRan=T
         wScrn=  0.000000 ICntrl=      3107 IOpCl=  1 I1Cent=           0 NGrid=           0
         NMat0=    1 NMatS0=      1 NMatT0=    0 NMatD0=    1 NMtDS0=    0 NMtDT0=    0
 Symmetry not used in FoFCou.
 G2DrvN:  IPasSy=1 do centers   22 through   43.
 Calling FoFCou, ICntrl=  3107 FMM=F I1Cent=   0 AccDes= 0.00D+00.
 End of G2Drv F.D. properties file   721 does not exist.
 End of G2Drv F.D. properties file   722 does not exist.
 End of G2Drv F.D. properties file   788 does not exist.
 Leave Link 1110 at Sat Feb  1 16:20:10 2025, MaxMem= 13421772800 cpu:           24305.4 elap:             191.9
 (Enter /gpfs/fs1/soft/improv/software/custom-built/gaussian/g16/l1002.exe)
 Minotr:  UHF open shell wavefunction.
          IDoAtm=1111111111111111111111111111111111111111111
          Direct CPHF calculation.
          Differentiating once with respect to nuclear coordinates.
          Requested convergence is 1.0D-08 RMS, and 1.0D-07 maximum.
          Secondary convergence is 1.0D-12 RMS, and 1.0D-12 maximum.
          NewPWx=T KeepS1=F KeepF1=F KeepIn=T MapXYZ=F SortEE=F KeepMc=T.
        13214 words used for storage of precomputed grid.
 Two-electron integrals replicated using symmetry.
          MDV=   13421772800 using IRadAn=       1.
          Solving linear equations simultaneously, MaxMat=     384.
 FoF2E skips out because all densities are zero.
 CalDSu exits because no D1Ps are significant.
 FoFJK:  IHMeth= 1 ICntrl=       0 DoSepK=F KAlg= 0 I1Cent=           0 FoldK=F
 IRaf= 790000000 NMat=      43 IRICut=     107 DoRegI=T DoRafI=T ISym2E= 2 IDoP0=3 IntGTp=2.
 FoFCou: FMM=F IPFlag=           0 FMFlag=      100000 FMFlg1=           0
         NFxFlg=           0 DoJE=F BraDBF=F KetDBF=F FulRan=T
         wScrn=  0.000000 ICntrl=         0 IOpCl=  1 I1Cent=           0 NGrid=           0
         NMat0=   43 NMatS0=     43 NMatT0=    0 NMatD0=   43 NMtDS0=    0 NMtDT0=    0
 Integrals replicated using symmetry in FoFCou.
 Raff kept on since  74.96% of shell-pairs survive, threshold=   0.20 IRatSp=75.
          There are   132 degrees of freedom in the 1st order CPHF.  IDoFFX=6 NUNeed=     0.
    129 vectors produced by pass  0 Test12= 1.38D-13 1.00D-09 XBig12= 3.40D-01 6.86D-02.
 AX will form    43 AO Fock derivatives at one time.
    129 vectors produced by pass  1 Test12= 1.38D-13 1.00D-09 XBig12= 7.48D-02 6.08D-02.
    127 vectors produced by pass  2 Test12= 1.38D-13 1.00D-09 XBig12= 1.50D-03 3.92D-03.
    126 vectors produced by pass  3 Test12= 1.38D-13 1.00D-09 XBig12= 9.04D-06 1.88D-04.
    126 vectors produced by pass  4 Test12= 1.38D-13 1.00D-09 XBig12= 2.03D-08 1.07D-05.
    116 vectors produced by pass  5 Test12= 1.38D-13 1.00D-09 XBig12= 3.20D-11 2.98D-07.
     37 vectors produced by pass  6 Test12= 1.38D-13 1.00D-09 XBig12= 4.31D-14 8.73D-09.
 InvSVY:  IOpt=1 It=  1 EMax= 5.55D-16
 Solved reduced A of dimension   790 with   132 vectors.
 End of Minotr F.D. properties file   721 does not exist.
 End of Minotr F.D. properties file   722 does not exist.
 End of Minotr F.D. properties file   788 does not exist.
 Leave Link 1002 at Sat Feb  1 16:34:23 2025, MaxMem= 13421772800 cpu:          105574.6 elap:             852.5
 (Enter /gpfs/fs1/soft/improv/software/custom-built/gaussian/g16/l601.exe)
 Copying SCF densities to generalized density rwf, IOpCl= 1 IROHF=0.

 **********************************************************************

            Population analysis using the SCF Density.

 **********************************************************************

 Orbital symmetries:
 Alpha Orbitals:
       Occupied  (A) (A) (A) (A) (A) (A) (A) (A) (A) (A) (A) (A)
                 (A) (A) (A) (A) (A) (A) (A) (A) (A) (A) (A) (A)
                 (A) (A) (A) (A) (A) (A) (A) (A) (A) (A) (A) (A)
                 (A) (A) (A) (A) (A) (A) (A) (A) (A) (A) (A) (A)
                 (A) (A) (A) (A) (A) (A) (A) (A) (A) (A) (A) (A)
                 (A) (A) (A) (A) (A) (A) (A) (A) (A) (A) (A) (A)
                 (A) (A) (A) (A) (A) (A) (A) (A) (A) (A) (A) (A)
                 (A) (A) (A) (A) (A) (A) (A) (A) (A) (A) (A) (A)
                 (A) (A) (A) (A) (A) (A) (A)
       Virtual   (A) (A) (A) (A) (A) (A) (A) (A) (A) (A) (A) (A)
                 (A) (A) (A) (A) (A) (A) (A) (A) (A) (A) (A) (A)
                 (A) (A) (A) (A) (A) (A) (A) (A) (A) (A) (A) (A)
                 (A) (A) (A) (A) (A) (A) (A) (A) (A) (A) (A) (A)
                 (A) (A) (A) (A) (A) (A) (A) (A) (A) (A) (A) (A)
                 (A) (A) (A) (A) (A) (A) (A) (A) (A) (A) (A) (A)
                 (A) (A) (A) (A) (A) (A) (A) (A) (A) (A) (A) (A)
                 (A) (A) (A) (A) (A) (A) (A) (A) (A) (A) (A) (A)
                 (A) (A) (A) (A) (A) (A) (A) (A) (A) (A) (A) (A)
                 (A) (A) (A) (A) (A) (A) (A) (A) (A) (A) (A) (A)
                 (A) (A) (A) (A) (A) (A) (A) (A) (A) (A) (A) (A)
                 (A) (A) (A) (A) (A) (A) (A) (A) (A) (A) (A) (A)
                 (A) (A) (A) (A) (A) (A) (A) (A) (A) (A) (A) (A)
                 (A) (A) (A) (A) (A) (A) (A) (A) (A) (A) (A) (A)
                 (A) (A) (A) (A) (A) (A) (A) (A) (A) (A) (A) (A)
                 (A) (A) (A) (A) (A) (A) (A) (A) (A) (A) (A) (A)
                 (A) (A) (A) (A) (A) (A) (A) (A) (A) (A) (A) (A)
                 (A) (A) (A) (A) (A) (A) (A) (A) (A) (A) (A) (A)
                 (A) (A) (A) (A) (A) (A) (A) (A) (A) (A) (A) (A)
                 (A) (A) (A) (A) (A) (A) (A) (A) (A) (A) (A) (A)
                 (A) (A) (A) (A) (A) (A) (A) (A) (A) (A) (A) (A)
                 (A) (A) (A) (A) (A) (A) (A) (A) (A) (A) (A) (A)
                 (A) (A) (A) (A) (A) (A) (A) (A) (A) (A) (A) (A)
                 (A) (A) (A) (A) (A) (A) (A) (A) (A) (A) (A) (A)
                 (A) (A) (A) (A) (A) (A) (A) (A) (A) (A) (A) (A)
                 (A) (A) (A) (A) (A) (A) (A) (A) (A) (A) (A) (A)
                 (A) (A) (A) (A) (A) (A) (A) (A) (A) (A) (A) (A)
                 (A) (A) (A) (A) (A) (A) (A) (A) (A) (A) (A) (A)
                 (A) (A) (A) (A) (A) (A) (A) (A) (A) (A) (A) (A)
                 (A) (A) (A) (A) (A) (A) (A) (A) (A) (A) (A) (A)
                 (A) (A) (A) (A) (A) (A) (A) (A) (A) (A) (A) (A)
                 (A) (A) (A) (A) (A) (A) (A) (A) (A) (A) (A) (A)
                 (A) (A) (A) (A) (A) (A) (A) (A) (A) (A) (A) (A)
                 (A) (A) (A) (A) (A) (A) (A) (A) (A) (A) (A) (A)
                 (A) (A) (A) (A) (A) (A) (A) (A) (A) (A) (A) (A)
                 (A) (A) (A) (A) (A) (A) (A) (A) (A) (A) (A) (A)
                 (A) (A) (A) (A) (A) (A) (A) (A) (A) (A) (A) (A)
                 (A) (A) (A) (A) (A) (A) (A) (A) (A) (A) (A) (A)
                 (A) (A) (A) (A) (A) (A) (A) (A) (A) (A) (A) (A)
                 (A) (A) (A) (A) (A) (A) (A) (A) (A) (A) (A) (A)
                 (A) (A) (A) (A) (A) (A) (A) (A) (A) (A) (A) (A)
                 (A) (A) (A) (A) (A) (A) (A) (A) (A) (A) (A) (A)
                 (A) (A) (A) (A) (A) (A) (A) (A) (A) (A) (A) (A)
                 (A) (A) (A) (A) (A) (A) (A) (A) (A) (A) (A) (A)
                 (A) (A) (A) (A) (A) (A) (A) (A) (A) (A) (A) (A)
                 (A) (A) (A) (A) (A) (A) (A) (A) (A) (A) (A) (A)
                 (A) (A) (A) (A) (A) (A) (A) (A) (A) (A) (A) (A)
                 (A) (A) (A) (A) (A) (A) (A) (A) (A) (A) (A) (A)
                 (A) (A) (A) (A) (A) (A) (A) (A) (A) (A) (A) (A)
                 (A) (A) (A) (A) (A) (A) (A) (A) (A) (A) (A) (A)
                 (A) (A) (A) (A) (A) (A) (A) (A) (A) (A) (A) (A)
                 (A) (A) (A) (A) (A) (A) (A) (A) (A) (A) (A) (A)
                 (A) (A) (A) (A) (A) (A) (A) (A) (A) (A) (A) (A)
                 (A) (A) (A) (A) (A) (A) (A) (A) (A) (A) (A) (A)
                 (A) (A) (A) (A) (A) (A) (A) (A) (A) (A) (A) (A)
                 (A) (A) (A) (A) (A) (A) (A) (A) (A)
 Beta  Orbitals:
       Occupied  (A) (A) (A) (A) (A) (A) (A) (A) (A) (A) (A) (A)
                 (A) (A) (A) (A) (A) (A) (A) (A) (A) (A) (A) (A)
                 (A) (A) (A) (A) (A) (A) (A) (A) (A) (A) (A) (A)
                 (A) (A) (A) (A) (A) (A) (A) (A) (A) (A) (A) (A)
                 (A) (A) (A) (A) (A) (A) (A) (A) (A) (A) (A) (A)
                 (A) (A) (A) (A) (A) (A) (A) (A) (A) (A) (A) (A)
                 (A) (A) (A) (A) (A) (A) (A) (A) (A) (A) (A) (A)
                 (A) (A) (A) (A) (A) (A) (A) (A) (A) (A) (A) (A)
                 (A) (A) (A) (A) (A) (A) (A)
       Virtual   (A) (A) (A) (A) (A) (A) (A) (A) (A) (A) (A) (A)
                 (A) (A) (A) (A) (A) (A) (A) (A) (A) (A) (A) (A)
                 (A) (A) (A) (A) (A) (A) (A) (A) (A) (A) (A) (A)
                 (A) (A) (A) (A) (A) (A) (A) (A) (A) (A) (A) (A)
                 (A) (A) (A) (A) (A) (A) (A) (A) (A) (A) (A) (A)
                 (A) (A) (A) (A) (A) (A) (A) (A) (A) (A) (A) (A)
                 (A) (A) (A) (A) (A) (A) (A) (A) (A) (A) (A) (A)
                 (A) (A) (A) (A) (A) (A) (A) (A) (A) (A) (A) (A)
                 (A) (A) (A) (A) (A) (A) (A) (A) (A) (A) (A) (A)
                 (A) (A) (A) (A) (A) (A) (A) (A) (A) (A) (A) (A)
                 (A) (A) (A) (A) (A) (A) (A) (A) (A) (A) (A) (A)
                 (A) (A) (A) (A) (A) (A) (A) (A) (A) (A) (A) (A)
                 (A) (A) (A) (A) (A) (A) (A) (A) (A) (A) (A) (A)
                 (A) (A) (A) (A) (A) (A) (A) (A) (A) (A) (A) (A)
                 (A) (A) (A) (A) (A) (A) (A) (A) (A) (A) (A) (A)
                 (A) (A) (A) (A) (A) (A) (A) (A) (A) (A) (A) (A)
                 (A) (A) (A) (A) (A) (A) (A) (A) (A) (A) (A) (A)
                 (A) (A) (A) (A) (A) (A) (A) (A) (A) (A) (A) (A)
                 (A) (A) (A) (A) (A) (A) (A) (A) (A) (A) (A) (A)
                 (A) (A) (A) (A) (A) (A) (A) (A) (A) (A) (A) (A)
                 (A) (A) (A) (A) (A) (A) (A) (A) (A) (A) (A) (A)
                 (A) (A) (A) (A) (A) (A) (A) (A) (A) (A) (A) (A)
                 (A) (A) (A) (A) (A) (A) (A) (A) (A) (A) (A) (A)
                 (A) (A) (A) (A) (A) (A) (A) (A) (A) (A) (A) (A)
                 (A) (A) (A) (A) (A) (A) (A) (A) (A) (A) (A) (A)
                 (A) (A) (A) (A) (A) (A) (A) (A) (A) (A) (A) (A)
                 (A) (A) (A) (A) (A) (A) (A) (A) (A) (A) (A) (A)
                 (A) (A) (A) (A) (A) (A) (A) (A) (A) (A) (A) (A)
                 (A) (A) (A) (A) (A) (A) (A) (A) (A) (A) (A) (A)
                 (A) (A) (A) (A) (A) (A) (A) (A) (A) (A) (A) (A)
                 (A) (A) (A) (A) (A) (A) (A) (A) (A) (A) (A) (A)
                 (A) (A) (A) (A) (A) (A) (A) (A) (A) (A) (A) (A)
                 (A) (A) (A) (A) (A) (A) (A) (A) (A) (A) (A) (A)
                 (A) (A) (A) (A) (A) (A) (A) (A) (A) (A) (A) (A)
                 (A) (A) (A) (A) (A) (A) (A) (A) (A) (A) (A) (A)
                 (A) (A) (A) (A) (A) (A) (A) (A) (A) (A) (A) (A)
                 (A) (A) (A) (A) (A) (A) (A) (A) (A) (A) (A) (A)
                 (A) (A) (A) (A) (A) (A) (A) (A) (A) (A) (A) (A)
                 (A) (A) (A) (A) (A) (A) (A) (A) (A) (A) (A) (A)
                 (A) (A) (A) (A) (A) (A) (A) (A) (A) (A) (A) (A)
                 (A) (A) (A) (A) (A) (A) (A) (A) (A) (A) (A) (A)
                 (A) (A) (A) (A) (A) (A) (A) (A) (A) (A) (A) (A)
                 (A) (A) (A) (A) (A) (A) (A) (A) (A) (A) (A) (A)
                 (A) (A) (A) (A) (A) (A) (A) (A) (A) (A) (A) (A)
                 (A) (A) (A) (A) (A) (A) (A) (A) (A) (A) (A) (A)
                 (A) (A) (A) (A) (A) (A) (A) (A) (A) (A) (A) (A)
                 (A) (A) (A) (A) (A) (A) (A) (A) (A) (A) (A) (A)
                 (A) (A) (A) (A) (A) (A) (A) (A) (A) (A) (A) (A)
                 (A) (A) (A) (A) (A) (A) (A) (A) (A) (A) (A) (A)
                 (A) (A) (A) (A) (A) (A) (A) (A) (A) (A) (A) (A)
                 (A) (A) (A) (A) (A) (A) (A) (A) (A) (A) (A) (A)
                 (A) (A) (A) (A) (A) (A) (A) (A) (A) (A) (A) (A)
                 (A) (A) (A) (A) (A) (A) (A) (A) (A) (A) (A) (A)
                 (A) (A) (A) (A) (A) (A) (A) (A) (A) (A) (A) (A)
                 (A) (A) (A) (A) (A) (A) (A) (A) (A) (A) (A) (A)
                 (A) (A) (A) (A) (A) (A) (A) (A) (A)
 The electronic state is 1-A.
 Alpha  occ. eigenvalues -- -256.06212 -77.25705 -30.02800 -25.90355 -25.88587
 Alpha  occ. eigenvalues --  -25.88539 -24.63673 -24.63569 -24.63519 -24.62645
 Alpha  occ. eigenvalues --  -24.62323 -24.62311 -14.48673 -10.27728 -10.26205
 Alpha  occ. eigenvalues --  -10.25451 -10.25387 -10.21328 -10.20597 -10.20254
 Alpha  occ. eigenvalues --  -10.20046 -10.19757 -10.19027 -10.18982 -10.18775
 Alpha  occ. eigenvalues --  -10.18366 -10.18018  -6.68540  -4.85056  -4.85045
 Alpha  occ. eigenvalues --   -4.85035  -3.41507  -2.21431  -2.17337  -2.17236
 Alpha  occ. eigenvalues --   -1.21562  -1.13922  -1.13852  -1.13830  -1.10547
 Alpha  occ. eigenvalues --   -1.10485  -1.04443  -0.90029  -0.87437  -0.79329
 Alpha  occ. eigenvalues --   -0.78601  -0.77524  -0.72502  -0.70932  -0.70706
 Alpha  occ. eigenvalues --   -0.70666  -0.65342  -0.61352  -0.56852  -0.56589
 Alpha  occ. eigenvalues --   -0.55438  -0.54843  -0.54647  -0.53962  -0.53501
 Alpha  occ. eigenvalues --   -0.52271  -0.50969  -0.50336  -0.50131  -0.50061
 Alpha  occ. eigenvalues --   -0.47590  -0.46787  -0.45216  -0.44540  -0.44221
 Alpha  occ. eigenvalues --   -0.43669  -0.43261  -0.42432  -0.42142  -0.41991
 Alpha  occ. eigenvalues --   -0.41760  -0.41176  -0.40802  -0.40037  -0.39889
 Alpha  occ. eigenvalues --   -0.39678  -0.39501  -0.38727  -0.37564  -0.37192
 Alpha  occ. eigenvalues --   -0.37078  -0.36141  -0.35546  -0.35337  -0.35243
 Alpha  occ. eigenvalues --   -0.35148  -0.35046  -0.34627  -0.31527  -0.31442
 Alpha  occ. eigenvalues --   -0.31337  -0.27733  -0.27630  -0.25305  -0.25103
 Alpha  occ. eigenvalues --   -0.23162  -0.20501  -0.20427
 Alpha virt. eigenvalues --   -0.00846  -0.00247   0.01526   0.03461   0.04596
 Alpha virt. eigenvalues --    0.05325   0.05554   0.06282   0.07079   0.07440
 Alpha virt. eigenvalues --    0.07526   0.08401   0.09026   0.09813   0.09987
 Alpha virt. eigenvalues --    0.11573   0.12347   0.12709   0.12928   0.13027
 Alpha virt. eigenvalues --    0.14577   0.15157   0.15834   0.16390   0.16883
 Alpha virt. eigenvalues --    0.17145   0.17731   0.17835   0.18436   0.19567
 Alpha virt. eigenvalues --    0.19891   0.20053   0.20817   0.21974   0.22673
 Alpha virt. eigenvalues --    0.23848   0.24985   0.26236   0.26457   0.27476
 Alpha virt. eigenvalues --    0.28371   0.29350   0.29929   0.31240   0.32044
 Alpha virt. eigenvalues --    0.32980   0.33651   0.34305   0.35644   0.36275
 Alpha virt. eigenvalues --    0.36728   0.38120   0.38812   0.39689   0.40180
 Alpha virt. eigenvalues --    0.41566   0.43173   0.44125   0.45074   0.45573
 Alpha virt. eigenvalues --    0.46671   0.47066   0.48056   0.48698   0.50007
 Alpha virt. eigenvalues --    0.50352   0.50548   0.50720   0.51090   0.51510
 Alpha virt. eigenvalues --    0.51767   0.52186   0.52548   0.54034   0.54833
 Alpha virt. eigenvalues --    0.56180   0.56925   0.57991   0.58928   0.60210
 Alpha virt. eigenvalues --    0.60704   0.61287   0.62579   0.63924   0.64665
 Alpha virt. eigenvalues --    0.65149   0.65481   0.65571   0.65784   0.66059
 Alpha virt. eigenvalues --    0.66617   0.67373   0.67925   0.68788   0.69489
 Alpha virt. eigenvalues --    0.69688   0.70529   0.70926   0.71749   0.71887
 Alpha virt. eigenvalues --    0.72934   0.73271   0.73945   0.74446   0.74823
 Alpha virt. eigenvalues --    0.75009   0.76177   0.76609   0.77100   0.77522
 Alpha virt. eigenvalues --    0.77882   0.78739   0.79310   0.80045   0.80106
 Alpha virt. eigenvalues --    0.81629   0.82466   0.82717   0.83225   0.83809
 Alpha virt. eigenvalues --    0.85215   0.85980   0.86591   0.87910   0.88731
 Alpha virt. eigenvalues --    0.89431   0.90180   0.91021   0.91142   0.91505
 Alpha virt. eigenvalues --    0.92263   0.93101   0.94101   0.94234   0.94531
 Alpha virt. eigenvalues --    0.95041   0.95578   0.97011   0.97948   0.98343
 Alpha virt. eigenvalues --    0.99346   1.00441   1.00861   1.02632   1.02974
 Alpha virt. eigenvalues --    1.03225   1.03698   1.04401   1.04687   1.05918
 Alpha virt. eigenvalues --    1.06897   1.07275   1.07906   1.09928   1.10567
 Alpha virt. eigenvalues --    1.10862   1.11319   1.11947   1.12111   1.12752
 Alpha virt. eigenvalues --    1.13374   1.14567   1.15126   1.15649   1.17088
 Alpha virt. eigenvalues --    1.17402   1.18237   1.18847   1.19984   1.20585
 Alpha virt. eigenvalues --    1.21273   1.21627   1.22235   1.23324   1.24984
 Alpha virt. eigenvalues --    1.26041   1.26704   1.28219   1.28728   1.30136
 Alpha virt. eigenvalues --    1.30183   1.31196   1.31960   1.32993   1.33338
 Alpha virt. eigenvalues --    1.34070   1.35215   1.35700   1.36077   1.36261
 Alpha virt. eigenvalues --    1.37421   1.38996   1.39055   1.39997   1.40781
 Alpha virt. eigenvalues --    1.41339   1.42303   1.42541   1.43262   1.44107
 Alpha virt. eigenvalues --    1.44454   1.45374   1.46121   1.46823   1.47713
 Alpha virt. eigenvalues --    1.48431   1.48508   1.48957   1.50029   1.50898
 Alpha virt. eigenvalues --    1.51324   1.52049   1.52286   1.53076   1.54924
 Alpha virt. eigenvalues --    1.55223   1.56361   1.56845   1.57706   1.57891
 Alpha virt. eigenvalues --    1.58335   1.58845   1.59407   1.59516   1.60574
 Alpha virt. eigenvalues --    1.61367   1.61589   1.62696   1.63068   1.63897
 Alpha virt. eigenvalues --    1.65409   1.65766   1.67236   1.68097   1.69354
 Alpha virt. eigenvalues --    1.71902   1.72079   1.73118   1.74118   1.75722
 Alpha virt. eigenvalues --    1.76309   1.76442   1.77150   1.78253   1.78622
 Alpha virt. eigenvalues --    1.80501   1.82034   1.83095   1.84311   1.85853
 Alpha virt. eigenvalues --    1.87143   1.87471   1.88691   1.89273   1.89402
 Alpha virt. eigenvalues --    1.90193   1.90442   1.90902   1.91323   1.91741
 Alpha virt. eigenvalues --    1.92277   1.93646   1.95047   1.96189   1.97830
 Alpha virt. eigenvalues --    1.98759   2.00134   2.01919   2.01942   2.05320
 Alpha virt. eigenvalues --    2.06988   2.10643   2.11248   2.13411   2.19417
 Alpha virt. eigenvalues --    2.20716   2.21003   2.21216   2.21765   2.22596
 Alpha virt. eigenvalues --    2.23823   2.24760   2.25324   2.25895   2.27079
 Alpha virt. eigenvalues --    2.29066   2.30233   2.31049   2.31469   2.32144
 Alpha virt. eigenvalues --    2.33031   2.33547   2.34161   2.34779   2.35374
 Alpha virt. eigenvalues --    2.36369   2.38685   2.39304   2.40580   2.41339
 Alpha virt. eigenvalues --    2.42188   2.43038   2.43995   2.46852   2.48261
 Alpha virt. eigenvalues --    2.48741   2.50495   2.52040   2.53035   2.53516
 Alpha virt. eigenvalues --    2.54404   2.56099   2.61672   2.62861   2.63678
 Alpha virt. eigenvalues --    2.64534   2.66794   2.67098   2.68067   2.68503
 Alpha virt. eigenvalues --    2.69117   2.69466   2.69822   2.70477   2.72174
 Alpha virt. eigenvalues --    2.73970   2.74661   2.76170   2.77453   2.80288
 Alpha virt. eigenvalues --    2.82863   2.83016   2.83953   2.84312   2.84972
 Alpha virt. eigenvalues --    2.85792   2.86155   2.87988   2.89010   2.89828
 Alpha virt. eigenvalues --    2.90609   2.91572   2.92897   2.93245   2.93927
 Alpha virt. eigenvalues --    2.94838   2.95990   2.96412   2.96914   2.97469
 Alpha virt. eigenvalues --    2.98107   2.98287   2.98904   2.99723   3.00788
 Alpha virt. eigenvalues --    3.01102   3.01853   3.02634   3.03321   3.03944
 Alpha virt. eigenvalues --    3.05064   3.05257   3.08036   3.10017   3.10308
 Alpha virt. eigenvalues --    3.10881   3.11671   3.13804   3.14017   3.15742
 Alpha virt. eigenvalues --    3.17201   3.18229   3.18711   3.21060   3.21782
 Alpha virt. eigenvalues --    3.24046   3.24771   3.25880   3.27083   3.27697
 Alpha virt. eigenvalues --    3.28191   3.30302   3.31706   3.31818   3.32582
 Alpha virt. eigenvalues --    3.33601   3.35090   3.35722   3.36563   3.37434
 Alpha virt. eigenvalues --    3.38292   3.39446   3.41046   3.41931   3.42509
 Alpha virt. eigenvalues --    3.43751   3.44600   3.45763   3.46865   3.47602
 Alpha virt. eigenvalues --    3.49058   3.49218   3.50993   3.54028   3.55538
 Alpha virt. eigenvalues --    3.58429   3.59607   3.61536   3.62646   3.63801
 Alpha virt. eigenvalues --    3.65778   3.66513   3.67070   3.67684   3.67866
 Alpha virt. eigenvalues --    3.68537   3.70421   3.71522   3.72534   3.72923
 Alpha virt. eigenvalues --    3.73857   3.74699   3.75291   3.77473   3.78078
 Alpha virt. eigenvalues --    3.79634   3.80315   3.82918   3.85910   3.88347
 Alpha virt. eigenvalues --    3.89406   3.92734   3.94482   3.98903   3.99196
 Alpha virt. eigenvalues --    4.00133   4.01335   4.01450   4.02688   4.03609
 Alpha virt. eigenvalues --    4.04583   4.05396   4.07134   4.11025   4.12207
 Alpha virt. eigenvalues --    4.13052   4.14403   4.15869   4.16798   4.17560
 Alpha virt. eigenvalues --    4.17922   4.18583   4.19725   4.20036   4.20854
 Alpha virt. eigenvalues --    4.21380   4.22010   4.22494   4.23400   4.25726
 Alpha virt. eigenvalues --    4.25842   4.26416   4.27365   4.28354   4.28476
 Alpha virt. eigenvalues --    4.29661   4.30075   4.30689   4.30923   4.32475
 Alpha virt. eigenvalues --    4.32806   4.34111   4.34730   4.34980   4.35227
 Alpha virt. eigenvalues --    4.35970   4.37336   4.37813   4.38261   4.38913
 Alpha virt. eigenvalues --    4.39462   4.40297   4.40829   4.41150   4.41385
 Alpha virt. eigenvalues --    4.41869   4.42485   4.42810   4.43280   4.43541
 Alpha virt. eigenvalues --    4.43952   4.44638   4.45167   4.45853   4.46231
 Alpha virt. eigenvalues --    4.46846   4.47471   4.47606   4.49085   4.49413
 Alpha virt. eigenvalues --    4.50495   4.50889   4.51189   4.52071   4.52701
 Alpha virt. eigenvalues --    4.53274   4.54067   4.54314   4.56323   4.57630
 Alpha virt. eigenvalues --    4.57975   4.59776   4.59918   4.60541   4.60907
 Alpha virt. eigenvalues --    4.61357   4.62060   4.62198   4.62645   4.63407
 Alpha virt. eigenvalues --    4.64148   4.64648   4.65413   4.67590   4.68572
 Alpha virt. eigenvalues --    4.69342   4.69771   4.71984   4.73603   4.74126
 Alpha virt. eigenvalues --    4.75256   4.76832   4.78110   4.78608   4.79637
 Alpha virt. eigenvalues --    4.81395   4.81552   4.82383   4.83234   4.83900
 Alpha virt. eigenvalues --    4.84719   4.86283   4.87372   4.87825   4.88521
 Alpha virt. eigenvalues --    4.89569   4.90035   4.92807   4.93826   4.96542
 Alpha virt. eigenvalues --    4.97043   4.98649   4.99746   5.01076   5.03007
 Alpha virt. eigenvalues --    5.03605   5.04284   5.05763   5.06807   5.07630
 Alpha virt. eigenvalues --    5.12459   5.13649   5.14785   5.16018   5.16741
 Alpha virt. eigenvalues --    5.18968   5.23306   5.25639   5.26528   5.27635
 Alpha virt. eigenvalues --    5.28301   5.29461   5.32159   5.33052   5.37336
 Alpha virt. eigenvalues --    5.39100   5.42979   5.44350   5.45606   5.47632
 Alpha virt. eigenvalues --    5.47913   5.50314   5.51553   5.52233   5.52446
 Alpha virt. eigenvalues --    5.53934   5.59006   5.59320   5.61457   5.65931
 Alpha virt. eigenvalues --    5.67744   5.67946   5.75878   5.87762   5.91427
 Alpha virt. eigenvalues --    5.92144   5.97181   6.08331   6.11875   6.18808
 Alpha virt. eigenvalues --    6.26027   6.64821   6.65215   6.65249   6.65317
 Alpha virt. eigenvalues --    6.65688   6.65753   6.66113   6.66173   6.67897
 Alpha virt. eigenvalues --    6.68635   6.68739   6.69019   6.69229   6.69358
 Alpha virt. eigenvalues --    6.69454   6.69681   6.69975   6.70015   6.70267
 Alpha virt. eigenvalues --    6.70353   6.70493   6.70872   6.71154   6.71213
 Alpha virt. eigenvalues --    6.74960   6.83660   6.84134   6.86647   6.90342
 Alpha virt. eigenvalues --    6.90600   6.91214   7.11427   7.12337   7.12902
 Alpha virt. eigenvalues --    7.13656   7.13937   7.21958   7.22044   7.22443
 Alpha virt. eigenvalues --    7.23342   7.24709   7.25968   7.27056   7.28689
 Alpha virt. eigenvalues --    7.29817   9.68969   9.71399  10.05346  10.08476
 Alpha virt. eigenvalues --   10.13377  10.68401  11.07577  11.12155  11.15945
 Alpha virt. eigenvalues --   11.18500  11.36409  11.55721  11.57111  11.75919
 Alpha virt. eigenvalues --   11.91714  12.00519  12.09326  12.19921  12.67952
 Alpha virt. eigenvalues --   12.73840  12.81751  21.29002  28.71460
  Beta  occ. eigenvalues -- -256.06212 -77.25705 -30.02800 -25.90355 -25.88587
  Beta  occ. eigenvalues --  -25.88539 -24.63673 -24.63569 -24.63519 -24.62645
  Beta  occ. eigenvalues --  -24.62323 -24.62311 -14.48673 -10.27728 -10.26205
  Beta  occ. eigenvalues --  -10.25451 -10.25387 -10.21328 -10.20597 -10.20254
  Beta  occ. eigenvalues --  -10.20046 -10.19757 -10.19027 -10.18982 -10.18775
  Beta  occ. eigenvalues --  -10.18366 -10.18018  -6.68540  -4.85056  -4.85045
  Beta  occ. eigenvalues --   -4.85035  -3.41507  -2.21431  -2.17337  -2.17236
  Beta  occ. eigenvalues --   -1.21562  -1.13922  -1.13852  -1.13830  -1.10547
  Beta  occ. eigenvalues --   -1.10485  -1.04443  -0.90029  -0.87437  -0.79329
  Beta  occ. eigenvalues --   -0.78601  -0.77524  -0.72502  -0.70932  -0.70706
  Beta  occ. eigenvalues --   -0.70666  -0.65342  -0.61352  -0.56852  -0.56589
  Beta  occ. eigenvalues --   -0.55438  -0.54843  -0.54647  -0.53962  -0.53501
  Beta  occ. eigenvalues --   -0.52271  -0.50969  -0.50336  -0.50131  -0.50061
  Beta  occ. eigenvalues --   -0.47590  -0.46787  -0.45216  -0.44540  -0.44221
  Beta  occ. eigenvalues --   -0.43669  -0.43261  -0.42432  -0.42142  -0.41991
  Beta  occ. eigenvalues --   -0.41760  -0.41176  -0.40802  -0.40037  -0.39889
  Beta  occ. eigenvalues --   -0.39678  -0.39501  -0.38727  -0.37564  -0.37192
  Beta  occ. eigenvalues --   -0.37078  -0.36141  -0.35546  -0.35337  -0.35243
  Beta  occ. eigenvalues --   -0.35148  -0.35046  -0.34627  -0.31527  -0.31442
  Beta  occ. eigenvalues --   -0.31337  -0.27733  -0.27630  -0.25305  -0.25103
  Beta  occ. eigenvalues --   -0.23162  -0.20501  -0.20427
  Beta virt. eigenvalues --   -0.00846  -0.00247   0.01526   0.03461   0.04596
  Beta virt. eigenvalues --    0.05325   0.05554   0.06282   0.07079   0.07440
  Beta virt. eigenvalues --    0.07526   0.08401   0.09026   0.09813   0.09987
  Beta virt. eigenvalues --    0.11573   0.12347   0.12709   0.12928   0.13027
  Beta virt. eigenvalues --    0.14577   0.15157   0.15834   0.16390   0.16883
  Beta virt. eigenvalues --    0.17145   0.17731   0.17835   0.18436   0.19567
  Beta virt. eigenvalues --    0.19891   0.20053   0.20817   0.21974   0.22673
  Beta virt. eigenvalues --    0.23848   0.24985   0.26236   0.26457   0.27476
  Beta virt. eigenvalues --    0.28371   0.29350   0.29929   0.31240   0.32044
  Beta virt. eigenvalues --    0.32980   0.33651   0.34305   0.35644   0.36275
  Beta virt. eigenvalues --    0.36728   0.38120   0.38812   0.39689   0.40180
  Beta virt. eigenvalues --    0.41566   0.43173   0.44125   0.45074   0.45573
  Beta virt. eigenvalues --    0.46671   0.47066   0.48056   0.48698   0.50007
  Beta virt. eigenvalues --    0.50352   0.50548   0.50720   0.51090   0.51510
  Beta virt. eigenvalues --    0.51767   0.52186   0.52548   0.54034   0.54833
  Beta virt. eigenvalues --    0.56180   0.56925   0.57991   0.58928   0.60210
  Beta virt. eigenvalues --    0.60704   0.61287   0.62579   0.63924   0.64665
  Beta virt. eigenvalues --    0.65149   0.65481   0.65571   0.65784   0.66059
  Beta virt. eigenvalues --    0.66617   0.67373   0.67925   0.68788   0.69489
  Beta virt. eigenvalues --    0.69688   0.70529   0.70926   0.71749   0.71887
  Beta virt. eigenvalues --    0.72934   0.73271   0.73945   0.74446   0.74823
  Beta virt. eigenvalues --    0.75009   0.76177   0.76609   0.77100   0.77522
  Beta virt. eigenvalues --    0.77882   0.78739   0.79310   0.80045   0.80106
  Beta virt. eigenvalues --    0.81629   0.82466   0.82717   0.83225   0.83809
  Beta virt. eigenvalues --    0.85215   0.85980   0.86591   0.87910   0.88731
  Beta virt. eigenvalues --    0.89431   0.90180   0.91021   0.91142   0.91505
  Beta virt. eigenvalues --    0.92263   0.93101   0.94101   0.94234   0.94531
  Beta virt. eigenvalues --    0.95041   0.95578   0.97011   0.97948   0.98343
  Beta virt. eigenvalues --    0.99346   1.00441   1.00861   1.02632   1.02974
  Beta virt. eigenvalues --    1.03225   1.03698   1.04401   1.04687   1.05918
  Beta virt. eigenvalues --    1.06897   1.07275   1.07906   1.09928   1.10567
  Beta virt. eigenvalues --    1.10862   1.11319   1.11947   1.12111   1.12752
  Beta virt. eigenvalues --    1.13374   1.14567   1.15126   1.15649   1.17088
  Beta virt. eigenvalues --    1.17402   1.18237   1.18847   1.19984   1.20585
  Beta virt. eigenvalues --    1.21273   1.21627   1.22235   1.23324   1.24984
  Beta virt. eigenvalues --    1.26041   1.26704   1.28219   1.28728   1.30136
  Beta virt. eigenvalues --    1.30183   1.31196   1.31960   1.32993   1.33338
  Beta virt. eigenvalues --    1.34070   1.35215   1.35700   1.36077   1.36261
  Beta virt. eigenvalues --    1.37421   1.38996   1.39055   1.39997   1.40781
  Beta virt. eigenvalues --    1.41339   1.42303   1.42541   1.43262   1.44107
  Beta virt. eigenvalues --    1.44454   1.45374   1.46121   1.46823   1.47713
  Beta virt. eigenvalues --    1.48431   1.48508   1.48957   1.50029   1.50898
  Beta virt. eigenvalues --    1.51324   1.52049   1.52286   1.53076   1.54924
  Beta virt. eigenvalues --    1.55223   1.56361   1.56845   1.57706   1.57891
  Beta virt. eigenvalues --    1.58335   1.58845   1.59407   1.59516   1.60574
  Beta virt. eigenvalues --    1.61367   1.61589   1.62696   1.63068   1.63897
  Beta virt. eigenvalues --    1.65409   1.65766   1.67236   1.68097   1.69354
  Beta virt. eigenvalues --    1.71902   1.72079   1.73118   1.74118   1.75722
  Beta virt. eigenvalues --    1.76309   1.76442   1.77150   1.78253   1.78622
  Beta virt. eigenvalues --    1.80501   1.82034   1.83095   1.84311   1.85853
  Beta virt. eigenvalues --    1.87143   1.87471   1.88691   1.89273   1.89402
  Beta virt. eigenvalues --    1.90193   1.90442   1.90902   1.91323   1.91741
  Beta virt. eigenvalues --    1.92277   1.93646   1.95047   1.96189   1.97830
  Beta virt. eigenvalues --    1.98759   2.00134   2.01919   2.01942   2.05320
  Beta virt. eigenvalues --    2.06988   2.10643   2.11248   2.13411   2.19417
  Beta virt. eigenvalues --    2.20716   2.21003   2.21216   2.21765   2.22596
  Beta virt. eigenvalues --    2.23823   2.24760   2.25324   2.25895   2.27079
  Beta virt. eigenvalues --    2.29066   2.30233   2.31049   2.31469   2.32144
  Beta virt. eigenvalues --    2.33031   2.33547   2.34161   2.34779   2.35374
  Beta virt. eigenvalues --    2.36369   2.38685   2.39304   2.40580   2.41339
  Beta virt. eigenvalues --    2.42188   2.43038   2.43995   2.46852   2.48261
  Beta virt. eigenvalues --    2.48741   2.50495   2.52040   2.53035   2.53516
  Beta virt. eigenvalues --    2.54404   2.56099   2.61672   2.62861   2.63678
  Beta virt. eigenvalues --    2.64534   2.66794   2.67098   2.68067   2.68503
  Beta virt. eigenvalues --    2.69117   2.69466   2.69822   2.70477   2.72174
  Beta virt. eigenvalues --    2.73970   2.74661   2.76170   2.77453   2.80288
  Beta virt. eigenvalues --    2.82863   2.83016   2.83953   2.84312   2.84972
  Beta virt. eigenvalues --    2.85792   2.86155   2.87988   2.89010   2.89828
  Beta virt. eigenvalues --    2.90609   2.91572   2.92897   2.93245   2.93927
  Beta virt. eigenvalues --    2.94838   2.95990   2.96412   2.96914   2.97469
  Beta virt. eigenvalues --    2.98107   2.98287   2.98904   2.99723   3.00788
  Beta virt. eigenvalues --    3.01102   3.01853   3.02634   3.03321   3.03944
  Beta virt. eigenvalues --    3.05064   3.05257   3.08036   3.10017   3.10308
  Beta virt. eigenvalues --    3.10881   3.11671   3.13804   3.14017   3.15742
  Beta virt. eigenvalues --    3.17201   3.18229   3.18711   3.21060   3.21782
  Beta virt. eigenvalues --    3.24046   3.24771   3.25880   3.27083   3.27697
  Beta virt. eigenvalues --    3.28191   3.30302   3.31706   3.31818   3.32582
  Beta virt. eigenvalues --    3.33601   3.35090   3.35722   3.36563   3.37434
  Beta virt. eigenvalues --    3.38292   3.39446   3.41046   3.41931   3.42509
  Beta virt. eigenvalues --    3.43751   3.44600   3.45763   3.46865   3.47602
  Beta virt. eigenvalues --    3.49058   3.49218   3.50993   3.54028   3.55538
  Beta virt. eigenvalues --    3.58429   3.59607   3.61536   3.62646   3.63801
  Beta virt. eigenvalues --    3.65778   3.66513   3.67070   3.67684   3.67866
  Beta virt. eigenvalues --    3.68537   3.70421   3.71522   3.72534   3.72923
  Beta virt. eigenvalues --    3.73857   3.74699   3.75291   3.77473   3.78078
  Beta virt. eigenvalues --    3.79634   3.80315   3.82918   3.85910   3.88347
  Beta virt. eigenvalues --    3.89406   3.92734   3.94482   3.98903   3.99196
  Beta virt. eigenvalues --    4.00133   4.01335   4.01450   4.02688   4.03609
  Beta virt. eigenvalues --    4.04583   4.05396   4.07134   4.11025   4.12207
  Beta virt. eigenvalues --    4.13052   4.14403   4.15869   4.16798   4.17560
  Beta virt. eigenvalues --    4.17922   4.18583   4.19725   4.20036   4.20854
  Beta virt. eigenvalues --    4.21380   4.22010   4.22494   4.23400   4.25726
  Beta virt. eigenvalues --    4.25842   4.26416   4.27365   4.28354   4.28476
  Beta virt. eigenvalues --    4.29661   4.30075   4.30689   4.30923   4.32475
  Beta virt. eigenvalues --    4.32806   4.34111   4.34730   4.34980   4.35227
  Beta virt. eigenvalues --    4.35970   4.37336   4.37813   4.38261   4.38913
  Beta virt. eigenvalues --    4.39462   4.40297   4.40829   4.41150   4.41385
  Beta virt. eigenvalues --    4.41869   4.42485   4.42810   4.43280   4.43541
  Beta virt. eigenvalues --    4.43952   4.44638   4.45167   4.45853   4.46231
  Beta virt. eigenvalues --    4.46846   4.47471   4.47606   4.49085   4.49413
  Beta virt. eigenvalues --    4.50495   4.50889   4.51189   4.52071   4.52701
  Beta virt. eigenvalues --    4.53274   4.54067   4.54314   4.56323   4.57630
  Beta virt. eigenvalues --    4.57975   4.59776   4.59918   4.60541   4.60907
  Beta virt. eigenvalues --    4.61357   4.62060   4.62198   4.62645   4.63407
  Beta virt. eigenvalues --    4.64148   4.64648   4.65413   4.67590   4.68572
[...]
    41  F(19)             -0.00000      -0.00000      -0.00000      -0.00000
    42  F(19)              0.00000       0.00000       0.00000       0.00000
    43  F(19)             -0.00000      -0.00000      -0.00000      -0.00000
 --------------------------------------------------------
       Center         ----  Spin Dipole Couplings  ----
                      3XX-RR        3YY-RR        3ZZ-RR
 --------------------------------------------------------
     1   Atom       -0.000000      0.000000     -0.000000
     2   Atom       -0.000000      0.000000      0.000000
     3   Atom        0.000000     -0.000000      0.000000
     4   Atom       -0.000000     -0.000000      0.000000
     5   Atom       -0.000000      0.000000     -0.000000
     6   Atom       -0.000000      0.000000      0.000000
     7   Atom       -0.000000      0.000000     -0.000000
     8   Atom        0.000000      0.000000     -0.000000
     9   Atom       -0.000000      0.000000      0.000000
    10   Atom        0.000000     -0.000000     -0.000000
    11   Atom        0.000000     -0.000000     -0.000000
    12   Atom       -0.000000      0.000000      0.000000
    13   Atom        0.000000     -0.000000     -0.000000
    14   Atom        0.000000     -0.000000      0.000000
    15   Atom        0.000000      0.000000     -0.000000
    16   Atom        0.000000     -0.000000      0.000000
    17   Atom        0.000000      0.000000     -0.000000
    18   Atom        0.000000     -0.000000      0.000000
    19   Atom       -0.000000      0.000000      0.000000
    20   Atom       -0.000000     -0.000000      0.000000
    21   Atom        0.000000     -0.000000     -0.000000
    22   Atom        0.000000      0.000000     -0.000000
    23   Atom       -0.000000      0.000000     -0.000000
    24   Atom        0.000000     -0.000000      0.000000
    25   Atom       -0.000000     -0.000000      0.000000
    26   Atom       -0.000000      0.000000      0.000000
    27   Atom       -0.000000      0.000000      0.000000
    28   Atom       -0.000000     -0.000000      0.000000
    29   Atom       -0.000000      0.000000      0.000000
    30   Atom        0.000000     -0.000000      0.000000
    31   Atom       -0.000000     -0.000000      0.000000
    32   Atom       -0.000000     -0.000000      0.000000
    33   Atom       -0.000000      0.000000     -0.000000
    34   Atom        0.000000      0.000000     -0.000000
    35   Atom        0.000000     -0.000000      0.000000
    36   Atom        0.000000     -0.000000     -0.000000
    37   Atom        0.000000      0.000000     -0.000000
    38   Atom       -0.000000      0.000000      0.000000
    39   Atom        0.000000     -0.000000     -0.000000
    40   Atom        0.000000      0.000000     -0.000000
    41   Atom       -0.000000      0.000000     -0.000000
    42   Atom       -0.000000      0.000000     -0.000000
    43   Atom        0.000000      0.000000     -0.000000
 --------------------------------------------------------
                        XY            XZ            YZ
 --------------------------------------------------------
     1   Atom       -0.000000     -0.000000      0.000000
     2   Atom       -0.000000     -0.000000      0.000000
     3   Atom       -0.000000      0.000000     -0.000000
     4   Atom       -0.000000      0.000000     -0.000000
     5   Atom        0.000000     -0.000000     -0.000000
     6   Atom        0.000000     -0.000000     -0.000000
     7   Atom       -0.000000      0.000000      0.000000
     8   Atom       -0.000000      0.000000      0.000000
     9   Atom       -0.000000     -0.000000      0.000000
    10   Atom       -0.000000      0.000000     -0.000000
    11   Atom       -0.000000     -0.000000     -0.000000
    12   Atom       -0.000000      0.000000     -0.000000
    13   Atom        0.000000      0.000000      0.000000
    14   Atom        0.000000     -0.000000      0.000000
    15   Atom        0.000000      0.000000      0.000000
    16   Atom       -0.000000      0.000000      0.000000
    17   Atom       -0.000000      0.000000      0.000000
    18   Atom        0.000000     -0.000000     -0.000000
    19   Atom        0.000000     -0.000000      0.000000
    20   Atom       -0.000000      0.000000     -0.000000
    21   Atom       -0.000000     -0.000000      0.000000
    22   Atom       -0.000000     -0.000000      0.000000
    23   Atom       -0.000000     -0.000000     -0.000000
    24   Atom       -0.000000      0.000000     -0.000000
    25   Atom       -0.000000     -0.000000     -0.000000
    26   Atom       -0.000000      0.000000     -0.000000
    27   Atom        0.000000      0.000000     -0.000000
    28   Atom       -0.000000      0.000000      0.000000
    29   Atom        0.000000     -0.000000     -0.000000
    30   Atom        0.000000      0.000000      0.000000
    31   Atom        0.000000     -0.000000     -0.000000
    32   Atom        0.000000     -0.000000      0.000000
    33   Atom        0.000000     -0.000000     -0.000000
    34   Atom       -0.000000     -0.000000     -0.000000
    35   Atom       -0.000000     -0.000000     -0.000000
    36   Atom       -0.000000     -0.000000      0.000000
    37   Atom       -0.000000      0.000000     -0.000000
    38   Atom        0.000000      0.000000     -0.000000
    39   Atom        0.000000     -0.000000      0.000000
    40   Atom       -0.000000     -0.000000      0.000000
    41   Atom        0.000000      0.000000      0.000000
    42   Atom        0.000000      0.000000      0.000000
    43   Atom       -0.000000     -0.000000      0.000000
 --------------------------------------------------------


 ---------------------------------------------------------------------------------
              Anisotropic Spin Dipole Couplings in Principal Axis System
 ---------------------------------------------------------------------------------

       Atom             a.u.   MegaHertz   Gauss  10(-4) cm-1        Axes

              Baa    -0.0000    -0.000    -0.000    -0.000  0.3944 -0.2139  0.8937
     1 C(13)  Bbb    -0.0000    -0.000    -0.000    -0.000  0.8963  0.3042 -0.3227
              Bcc     0.0000     0.000     0.000     0.000 -0.2028  0.9283  0.3117
 
              Baa    -0.0000    -0.000    -0.000    -0.000  0.9838  0.1665  0.0657
     2 H(1)   Bbb     0.0000     0.000     0.000     0.000  0.0225 -0.4788  0.8776
              Bcc     0.0000     0.000     0.000     0.000 -0.1776  0.8620  0.4748
 
              Baa    -0.0000    -0.000    -0.000    -0.000  0.0705  0.8761  0.4770
     3 C(13)  Bbb    -0.0000    -0.000    -0.000    -0.000  0.9837  0.0183 -0.1789
              Bcc     0.0000     0.000     0.000     0.000  0.1654 -0.4819  0.8605
 
              Baa    -0.0000    -0.000    -0.000    -0.000 -0.4404  0.7487  0.4954
     4 H(1)   Bbb    -0.0000    -0.000    -0.000    -0.000  0.8193  0.5608 -0.1193
              Bcc     0.0000     0.000     0.000     0.000  0.3672 -0.3534  0.8604
 
              Baa    -0.0000    -0.000    -0.000    -0.000  0.4737  0.0875  0.8763
     5 C(13)  Bbb     0.0000     0.000     0.000     0.000  0.8264 -0.3881 -0.4080
              Bcc     0.0000     0.000     0.000     0.000  0.3043  0.9175 -0.2562
 
              Baa    -0.0000    -0.000    -0.000    -0.000  0.9963 -0.0858 -0.0035
     6 C(13)  Bbb     0.0000     0.000     0.000     0.000  0.0685  0.7685  0.6362
              Bcc     0.0000     0.000     0.000     0.000 -0.0519 -0.6341  0.7715
 
              Baa    -0.0000    -0.000    -0.000    -0.000 -0.6861 -0.2363  0.6881
     7 H(1)   Bbb     0.0000     0.000     0.000     0.000  0.6839 -0.5320  0.4992
              Bcc     0.0000     0.000     0.000     0.000  0.2481  0.8131  0.5267
 
              Baa    -0.0000    -0.000    -0.000    -0.000 -0.0381 -0.2132  0.9763
     8 C(13)  Bbb     0.0000     0.000     0.000     0.000  0.4552  0.8660  0.2069
              Bcc     0.0000     0.000     0.000     0.000  0.8896 -0.4523 -0.0641
 
              Baa    -0.0000    -0.000    -0.000    -0.000  0.8864  0.0700  0.4576
     9 H(1)   Bbb     0.0000     0.000     0.000     0.000  0.0854  0.9468 -0.3103
              Bcc     0.0000     0.000     0.000     0.000 -0.4549  0.3141  0.8333
 
              Baa    -0.0000    -0.000    -0.000    -0.000 -0.2068  0.0462  0.9773
    10 C(13)  Bbb    -0.0000    -0.000    -0.000    -0.000  0.0684  0.9971 -0.0326
              Bcc     0.0000     0.000     0.000     0.000  0.9760 -0.0601  0.2093
 
              Baa    -0.0000    -0.000    -0.000    -0.000  0.2079  0.8180  0.5364
    11 H(1)   Bbb    -0.0000    -0.000    -0.000    -0.000 -0.1018 -0.5273  0.8436
              Bcc     0.0000     0.000     0.000     0.000  0.9728 -0.2300 -0.0264
 
              Baa    -0.0000    -0.000    -0.000    -0.000  0.8143 -0.2996 -0.4971
    12 C(13)  Bbb    -0.0000    -0.000    -0.000    -0.000  0.4847  0.8223  0.2982
              Bcc     0.0000     0.000     0.000     0.000  0.3194 -0.4838  0.8148
 
              Baa    -0.0000    -0.000    -0.000    -0.000 -0.1263  0.7165 -0.6860
    13 H(1)   Bbb     0.0000     0.000     0.000     0.000  0.9301 -0.1550 -0.3331
              Bcc     0.0000     0.000     0.000     0.000  0.3450  0.6801  0.6468
 
              Baa    -0.0000    -0.000    -0.000    -0.000 -0.1382  0.8894 -0.4358
    14 C(13)  Bbb     0.0000     0.000     0.000     0.000  0.9207  0.2775  0.2743
              Bcc     0.0000     0.000     0.000     0.000 -0.3649  0.3633  0.8572
 
              Baa    -0.0000    -0.000    -0.000    -0.000 -0.4019 -0.3639  0.8402
    15 H(1)   Bbb     0.0000     0.000     0.000     0.000 -0.6758  0.7371 -0.0040
              Bcc     0.0000     0.000     0.000     0.000  0.6179  0.5694  0.5422
 
              Baa    -0.0000    -0.000    -0.000    -0.000  0.5134  0.6900 -0.5102
    16 C(13)  Bbb    -0.0000    -0.000    -0.000    -0.000 -0.3706  0.7145  0.5934
              Bcc     0.0000     0.000     0.000     0.000  0.7740 -0.1156  0.6226
 
              Baa    -0.0000    -0.000    -0.000    -0.000 -0.4118 -0.3905  0.8233
    17 H(1)   Bbb     0.0000     0.000     0.000     0.000  0.1395  0.8659  0.4805
              Bcc     0.0000     0.000     0.000     0.000  0.9005 -0.3127  0.3021
 
              Baa    -0.0000    -0.000    -0.000    -0.000 -0.1060  0.9886  0.1066
    18 C(13)  Bbb     0.0000     0.000     0.000     0.000  0.3329 -0.0657  0.9407
              Bcc     0.0000     0.000     0.000     0.000  0.9370  0.1352 -0.3222
 
              Baa    -0.0000    -0.000    -0.000    -0.000  0.7944 -0.2946  0.5311
    19 H(1)   Bbb     0.0000     0.000     0.000     0.000 -0.5133  0.1417  0.8464
              Bcc     0.0000     0.000     0.000     0.000  0.3246  0.9451  0.0387
 
              Baa    -0.0000    -0.000    -0.000    -0.000  0.4921  0.8701 -0.0270
    20 Fe(57) Bbb    -0.0000    -0.000    -0.000    -0.000  0.7599 -0.4446 -0.4742
              Bcc     0.0000     0.000     0.000     0.000  0.4246 -0.2128  0.8800
 
              Baa    -0.0000    -0.000    -0.000    -0.000  0.1226 -0.3334  0.9348
    21 C(13)  Bbb     0.0000     0.000     0.000     0.000  0.1183  0.9401  0.3197
              Bcc     0.0000     0.000     0.000     0.000  0.9854 -0.0714 -0.1547
 
              Baa    -0.0000    -0.000    -0.000    -0.000  0.2338 -0.1068  0.9664
    22 H(1)   Bbb     0.0000     0.000     0.000     0.000  0.4082  0.9129  0.0021
              Bcc     0.0000     0.000     0.000     0.000  0.8824 -0.3940 -0.2570
 
              Baa    -0.0000    -0.000    -0.000    -0.000  0.6732  0.6475  0.3572
    23 H(1)   Bbb    -0.0000    -0.000    -0.000    -0.000 -0.4116 -0.0732  0.9084
              Bcc     0.0000     0.000     0.000     0.000 -0.6144  0.7585 -0.2172
 
              Baa    -0.0000    -0.000    -0.000    -0.000  0.1240  0.9209  0.3695
    24 N(14)  Bbb    -0.0000    -0.000    -0.000    -0.000  0.8042  0.1249 -0.5811
              Bcc     0.0000     0.000     0.000     0.000  0.5813 -0.3692  0.7251
 
              Baa    -0.0000    -0.000    -0.000    -0.000  0.8132  0.5627  0.1485
    25 C(13)  Bbb     0.0000     0.000     0.000     0.000 -0.4229  0.7467 -0.5133
              Bcc     0.0000     0.000     0.000     0.000 -0.3997  0.3546  0.8452
 
              Baa    -0.0000    -0.000    -0.000    -0.000  0.9086  0.0519 -0.4143
    26 H(1)   Bbb     0.0000     0.000     0.000     0.000  0.1805  0.8459  0.5019
              Bcc     0.0000     0.000     0.000     0.000  0.3766 -0.5308  0.7593
 
              Baa    -0.0000    -0.000    -0.000    -0.000  0.6826 -0.4241 -0.5952
    27 H(1)   Bbb     0.0000     0.000     0.000     0.000  0.7148  0.5568  0.4230
              Bcc     0.0000     0.000     0.000     0.000 -0.1520  0.7142 -0.6832
 
              Baa    -0.0000    -0.000    -0.000    -0.000  0.6056  0.7267 -0.3243
    28 H(1)   Bbb     0.0000     0.000     0.000     0.000  0.7922 -0.5890  0.1595
              Bcc     0.0000     0.000     0.000     0.000  0.0751  0.3535  0.9324
 
              Baa    -0.0000    -0.000    -0.000    -0.000  0.8900 -0.4502  0.0720
    29 C(13)  Bbb     0.0000     0.000     0.000     0.000  0.1132  0.3711  0.9217
              Bcc     0.0000     0.000     0.000     0.000  0.4417  0.8121 -0.3813
 
              Baa    -0.0000    -0.000    -0.000    -0.000 -0.3429  0.9368 -0.0692
    30 H(1)   Bbb     0.0000     0.000     0.000     0.000 -0.4839 -0.1130  0.8678
              Bcc     0.0000     0.000     0.000     0.000  0.8051  0.3311  0.4921
 
              Baa    -0.0000    -0.000    -0.000    -0.000  0.8476 -0.5298  0.0304
    31 H(1)   Bbb    -0.0000    -0.000    -0.000    -0.000  0.5108  0.8300  0.2240
              Bcc     0.0000     0.000     0.000     0.000 -0.1439 -0.1743  0.9741
 
              Baa    -0.0000    -0.000    -0.000    -0.000  0.8241 -0.4216  0.3782
    32 H(1)   Bbb    -0.0000    -0.000    -0.000    -0.000  0.3954  0.9064  0.1487
              Bcc     0.0000     0.000     0.000     0.000 -0.4055  0.0270  0.9137
 
              Baa    -0.0000    -0.000    -0.000    -0.000  0.3821  0.3608  0.8508
    33 C(13)  Bbb    -0.0000    -0.000    -0.000    -0.000  0.8724 -0.4446 -0.2032
              Bcc     0.0000     0.000     0.000     0.000  0.3049  0.8198 -0.4847
 
              Baa    -0.0000    -0.000    -0.000    -0.000  0.5324  0.2605  0.8054
    34 H(1)   Bbb     0.0000     0.000     0.000     0.000 -0.0293  0.9566 -0.2900
              Bcc     0.0000     0.000     0.000     0.000  0.8460 -0.1308 -0.5169
 
              Baa    -0.0000    -0.000    -0.000    -0.000  0.3925  0.7919  0.4679
    35 H(1)   Bbb     0.0000     0.000     0.000     0.000 -0.4529 -0.2764  0.8476
              Bcc     0.0000     0.000     0.000     0.000  0.8005 -0.5446  0.2502
 
              Baa    -0.0000    -0.000    -0.000    -0.000 -0.0356 -0.5317  0.8462
    36 H(1)   Bbb    -0.0000    -0.000    -0.000    -0.000  0.3076  0.7998  0.5154
              Bcc     0.0000     0.000     0.000     0.000  0.9508 -0.2787 -0.1351
 
              Baa    -0.0000    -0.000    -0.000    -0.000  0.0289  0.2030  0.9788
    37 P(31)  Bbb     0.0000     0.000     0.000     0.000  0.6899  0.7045 -0.1665
              Bcc     0.0000     0.000     0.000     0.000  0.7233 -0.6801  0.1196
 
              Baa    -0.0000    -0.000    -0.000    -0.000  0.9972 -0.0455 -0.0586
    38 F(19)  Bbb     0.0000     0.000     0.000     0.000  0.0483  0.9977  0.0469
              Bcc     0.0000     0.000     0.000     0.000  0.0564 -0.0496  0.9972
 
              Baa    -0.0000    -0.000    -0.000    -0.000 -0.0862  0.9871 -0.1349
    39 F(19)  Bbb    -0.0000    -0.000    -0.000    -0.000  0.0456  0.1391  0.9892
              Bcc     0.0000     0.000     0.000     0.000  0.9952  0.0791 -0.0570
 
              Baa    -0.0000    -0.000    -0.000    -0.000  0.1440 -0.0452  0.9885
    40 F(19)  Bbb     0.0000     0.000     0.000     0.000  0.0464  0.9982  0.0389
              Bcc     0.0000     0.000     0.000     0.000  0.9885 -0.0403 -0.1458
 
              Baa    -0.0000    -0.000    -0.000    -0.000 -0.0360 -0.1642  0.9858
    41 F(19)  Bbb    -0.0000    -0.000    -0.000    -0.000  0.9179 -0.3956 -0.0323
              Bcc     0.0000     0.000     0.000     0.000  0.3952  0.9036  0.1650
 
              Baa    -0.0000    -0.000    -0.000    -0.000 -0.2663  0.0342  0.9633
    42 F(19)  Bbb    -0.0000    -0.000    -0.000    -0.000  0.8891 -0.3773  0.2592
              Bcc     0.0000     0.000     0.000     0.000  0.3723  0.9255  0.0701
 
              Baa    -0.0000    -0.000    -0.000    -0.000  0.2413 -0.0093  0.9704
    43 F(19)  Bbb     0.0000     0.000     0.000     0.000  0.1699  0.9849 -0.0328
              Bcc     0.0000     0.000     0.000     0.000  0.9555 -0.1727 -0.2392
 

 ---------------------------------------------------------------------------------

 No NMR shielding tensors so no spin-rotation constants.
 Leave Link  601 at Sat Feb  1 17:16:04 2025, MaxMem= 13421772800 cpu:              33.9 elap:               0.6
 (Enter /gpfs/fs1/soft/improv/software/custom-built/gaussian/g16/l9999.exe)
 Unable to Open any file for archive entry.
 1\1\GINC-I586\SP\UB3LYP\Gen\C14H20F6Fe1N1P1\HHARB\01-Feb-2025\0\\#p ub
 3lyp scf=(novaracc,maxcycles=1000,fermi,xqc) empiricaldispersion=gd3 g
 eom=allcheck guess=read chkbasis scrf=(cpcm,solvent=acetonitrile)\\Tit
 le Card Required\\0,1\C,-0.9521177212,0.6187071407,-0.7236569366\H,-0.
 3457424193,1.5119699066,-0.7311836972\C,-1.869374845,0.2230372484,-1.7
 374902613\H,-2.0873189702,0.7613206844,-2.6491233433\C,-2.4976212424,-
 0.9991349633,-1.3183564061\C,-0.9917182649,-0.3595930008,0.3153969283\
 H,-0.4244154681,-0.3291779233,1.2335369573\C,-1.9444876951,-1.35587635
 65,-0.0383809484\H,-2.2552361479,-2.1946577234,0.5628347236\C,-3.44369
 14299,2.2587457748,0.7948406509\H,-2.858738447,3.1664144104,0.77038939
 72\C,-4.3641827122,1.8235521589,-0.2062284707\H,-4.5978337773,2.348094
 581,-1.1212302614\C,-4.9076690752,0.5713233466,0.2101800233\H,-5.61639
 89221,-0.0459564255,-0.3208306131\C,-3.4224087355,1.2713499572,1.82653
 447\H,-2.8107058358,1.3004278937,2.7162756812\C,-4.3255753082,0.229036
 2715,1.4634403157\H,-4.5295772532,-0.6831298959,2.0016863545\Fe,-2.860
 043066,0.4482719667,0.0366775242\C,-3.6363864319,-1.6578514318,-2.0055
 852297\H,-4.0749609027,-0.9894164419,-2.7500092148\H,-4.4033130548,-1.
 9562478132,-1.301791153\N,-3.286853218,-2.9483558905,-2.7813701476\C,-
 2.7113554249,-3.9821525207,-1.8522509707\H,-1.7749296828,-3.6017827494
 ,-1.4490628956\H,-3.4288818232,-4.1626553077,-1.0543965298\H,-2.534176
 3711,-4.8925625191,-2.4272866392\C,-2.3104622567,-2.643896582,-3.86759
 80333\H,-2.0604678542,-3.5658051435,-4.3949649718\H,-2.7617247673,-1.9
 308844531,-4.5593936745\H,-1.4174401526,-2.2062879213,-3.4213931688\C,
 -4.568228526,-3.4823084521,-3.3578384485\H,-4.9956206867,-2.7256878244
 ,-4.0171843573\H,-4.3459064188,-4.3879053768,-3.9247315929\H,-5.247197
 7663,-3.7028051677,-2.5339715276\P,-5.9701806594,-3.4388968569,0.61232
 68248\F,-6.2792404955,-2.3019743229,1.7016694716\F,-6.2257433747,-2.33
 76885307,-0.5908790339\F,-7.4991437632,-3.8730249228,0.5370302739\F,-5
 .5811543765,-4.5299523805,-0.5558181621\F,-5.656123887,-4.5183376494,1
 .7416387069\F,-4.3800496492,-2.9803596239,0.6197223355\\Version=ES64L-
 G16RevC.02\State=1-A\HF=-2804.6784087\S2=0.\S2-1=0.\S2A=0.\RMSD=5.285e
 -09\Dipole=4.1014621,0.8454107,-5.042097\Quadrupole=-12.0243098,-4.149
 6329,16.1739427,-9.5100866,3.2725689,13.0519643\PG=C01 [X(C14H20F6Fe1N
 1P1)]\\@
 The archive entry for this job was punched.


 MOST BUREAUCRACIES FUNCTION LIKE A SEPTIC TANK.
 THE LARGE CHUNKS RISE TO THE TOP.
 Job cpu time:       0 days  2 hours 37 minutes 11.6 seconds.
 Elapsed time:       0 days  0 hours  1 minutes 29.5 seconds.
 File lengths (MBytes):  RWF=    533 Int=      0 D2E=      0 Chk=     96 Scr=      1
 Normal termination of Gaussian 16 at Sat Feb  1 17:16:04 2025.
