43
Ferrocene_NH4_0_gas_secondrun.log	Energy: -1759962.2589654
C         -3.53561        0.97471        0.77918
H         -4.61487        0.95221        0.75979
C         -2.69263        1.50468       -0.23782
H         -3.01470        1.95256       -1.16734
C         -1.32805        1.29863        0.16161
C         -2.70427        0.45697        1.81797
H         -3.04775       -0.03161        2.71744
C         -1.34406        0.64588        1.44427
H         -0.47363        0.30684        1.98184
C         -3.39307       -2.00019       -0.74829
H         -4.47174       -2.02408       -0.79851
C         -2.51593       -1.46822       -1.74151
H         -2.81772       -1.02017       -2.67700
C         -1.17644       -1.62175       -1.27347
H         -0.26875       -1.30755       -1.76609
C         -2.58996       -2.48020        0.33079
H         -2.95865       -2.92446        1.24368
C         -1.22145       -2.24433        0.00599
H         -0.35456       -2.45652        0.61167
Fe        -2.27372       -0.47710        0.03946
C         -0.13785        1.55217       -0.68817
H         -0.43462        1.71536       -1.72673
H          0.56137        0.72647       -0.64506
N          0.69568        2.79738       -0.30857
C          1.21168        2.67684        1.09942
H          0.36177        2.65615        1.77865
H          1.78760        1.75676        1.17533
H          1.83983        3.54521        1.30497
C         -0.13581        4.02920       -0.43964
H          0.45983        4.89714       -0.15254
H         -0.46067        4.12815       -1.47659
H         -1.00629        3.93321        0.20931
C          1.86927        2.85048       -1.24623
H          1.49550        2.91905       -2.26871
H          2.46728        3.73175       -1.00823
H          2.45552        1.94143       -1.11086
P          2.70514       -1.04038        0.12932
F          1.97689       -2.46688        0.03184
F          1.94405       -0.57119       -1.25859
F          3.94885       -1.54465       -0.72553
F          3.34844        0.47145        0.21225
F          3.41344       -1.42985        1.50256
F          1.40501       -0.46092        0.97355
