      -----------------------------------------------------------      
     |                   =====================                   |     
     |                           x T B                           |     
     |                   =====================                   |     
     |                         S. Grimme                         |     
     |          Mulliken Center for Theoretical Chemistry        |     
     |                    University of Bonn                     |     
      -----------------------------------------------------------      

   * xtb version 6.6.0 (conda-forge) compiled by 'runner@Mac-1676020848589.local' on 2023-02-10

   xtb is free software: you can redistribute it and/or modify it under
   the terms of the GNU Lesser General Public License as published by
   the Free Software Foundation, either version 3 of the License, or
   (at your option) any later version.
   
   xtb is distributed in the hope that it will be useful,
   but WITHOUT ANY WARRANTY; without even the implied warranty of
   MERCHANTABILITY or FITNESS FOR A PARTICULAR PURPOSE.  See the
   GNU Lesser General Public License for more details.
   
   Cite this work as:
   * C. Bannwarth, E. Caldeweyher, S. Ehlert, A. Hansen, P. Pracht,
     J. Seibert, S. Spicher, S. Grimme, WIREs Comput. Mol. Sci., 2020, 11,
     e01493. DOI: 10.1002/wcms.1493
   
   for GFN2-xTB:
   * C. Bannwarth, S. Ehlert and S. Grimme., J. Chem. Theory Comput., 2019,
     15, 1652-1671. DOI: 10.1021/acs.jctc.8b01176
   for GFN1-xTB:
   * S. Grimme, C. Bannwarth, P. Shushkov, J. Chem. Theory Comput., 2017,
     13, 1989-2009. DOI: 10.1021/acs.jctc.7b00118
   for GFN0-xTB:
   * P. Pracht, E. Caldeweyher, S. Ehlert, S. Grimme, ChemRxiv, 2019, preprint.
     DOI: 10.26434/chemrxiv.8326202.v1
   for GFN-FF:
   * S. Spicher and S. Grimme, Angew. Chem. Int. Ed., 2020, 59, 15665-15673.
     DOI: 10.1002/anie.202004239
   
   for ALPB and GBSA implicit solvation:
   * S. Ehlert, M. Stahn, S. Spicher, S. Grimme, J. Chem. Theory Comput.,
     2021, 17, 4250-4261. DOI: 10.1021/acs.jctc.1c00471
   
   for DFT-D4:
   * E. Caldeweyher, C. Bannwarth and S. Grimme, J. Chem. Phys., 2017,
     147, 034112. DOI: 10.1063/1.4993215
   * E. Caldeweyher, S. Ehlert, A. Hansen, H. Neugebauer, S. Spicher,
     C. Bannwarth and S. Grimme, J. Chem. Phys., 2019, 150, 154122.
     DOI: 10.1063/1.5090222
   * E. Caldeweyher, J.-M. Mewes, S. Ehlert and S. Grimme, Phys. Chem. Chem. Phys.
     2020, 22, 8499-8512. DOI: 10.1039/D0CP00502A
   
   for sTDA-xTB:
   * S. Grimme and C. Bannwarth, J. Chem. Phys., 2016, 145, 054103.
     DOI: 10.1063/1.4959605
   
   in the mass-spec context:
   * V. Asgeirsson, C. Bauer and S. Grimme, Chem. Sci., 2017, 8, 4879.
     DOI: 10.1039/c7sc00601b
   * J. Koopman and S. Grimme, ACS Omega 2019, 4, 12, 15120-15133.
     DOI: 10.1021/acsomega.9b02011
   
   for metadynamics refer to:
   * S. Grimme, J. Chem. Theory Comput., 2019, 155, 2847-2862
     DOI: 10.1021/acs.jctc.9b00143
   
   for SPH calculations refer to:
   * S. Spicher and S. Grimme, J. Chem. Theory Comput., 2021, 17, 1701-1714
     DOI: 10.1021/acs.jctc.0c01306
   
   with help from (in alphabetical order)
   P. Atkinson, C. Bannwarth, F. Bohle, G. Brandenburg, E. Caldeweyher
   M. Checinski, S. Dohm, S. Ehlert, S. Ehrlich, I. Gerasimov, C. Hölzer
   A. Katbashev, J. Koopman, C. Lavigne, S. Lehtola, F. März, M. Müller,
   F. Musil, H. Neugebauer, J. Pisarek, C. Plett, P. Pracht, F. Pultar,
   J. Seibert, P. Shushkov, S. Spicher, M. Stahn, M. Steiner, T. Strunk,
   J. Stückrath, T. Rose, and J. Unsleber
   
 * started run on 2025/02/06 at 15:15:29.206     

           -------------------------------------------------
          |                Calculation Setup                |
           -------------------------------------------------

          program call               : xtb tmpcoord --gfn2 --opt
          coordinate file            : tmpcoord
          omp threads                :                     1

   ID    Z sym.   atoms
    1    6 c      1-6, 8-13, 23, 26, 30, 33, 37, 41, 42, 47, 48, 53, 54, 59,
                  60, 65, 66, 71, 72, 77, 78, 83, 84, 89, 90, 95, 96, 101,
                  102, 107, 108, 113, 114, 119, 120, 125, 126, 131, 132, 137,
                  138, 143, 144, 149, 150, 155, 156
    2    7 n      7, 43, 49, 55, 61, 67, 73, 79, 85, 91, 97, 103, 109, 115,
                  121, 127, 133, 139, 145, 151, 157
    3    1 h      14-21, 24, 25, 27, 28, 31, 32, 34, 35, 38-40, 44-46, 50-52,
                  56-58, 62-64, 68-70, 74-76, 80-82, 86-88, 92-94, 98-100,
                  104-106, 110-112, 116-118, 122-124, 128-130, 134-136,
                  140-142, 146-148, 152-154, 158-160
    4   16 s      22
    5    8 o      29, 36

molecular fragmentation (1/2 indicates fragments):
111111111111111111111111111111111111111122222222222222222222222222222222
222222222222222222222222222222222222222222222222222222222222222222222222
2222222222222222
# atoms in fragment 1/2:    40   120
 fragment masses (1/2) :      301.40      821.04
CMA distance (Bohr)    :   0.510
constraining FC (au)   :  0.0500

           -------------------------------------------------
          |                 G F N 2 - x T B                 |
           -------------------------------------------------

        Reference                      10.1021/acs.jctc.8b01176
      * Hamiltonian:
        H0-scaling (s, p, d)           1.850000    2.230000    2.230000
        zeta-weighting                 0.500000
      * Dispersion:
        s8                             2.700000
        a1                             0.520000
        a2                             5.000000
        s9                             5.000000
      * Repulsion:
        kExp                           1.500000    1.000000
        rExp                           1.000000
      * Coulomb:
        alpha                          2.000000
        third order                    shell-resolved
        anisotropic                    true
        a3                             3.000000
        a5                             4.000000
        cn-shift                       1.200000
        cn-exp                         4.000000
        max-rad                        5.000000


          ...................................................
          :                      SETUP                      :
          :.................................................:
          :  # basis functions                 409          :
          :  # atomic orbitals                 408          :
          :  # shells                          242          :
          :  # electrons                       430          :
          :  max. iterations                   250          :
          :  Hamiltonian                  GFN2-xTB          :
          :  restarted?                      false          :
          :  GBSA solvation                  false          :
          :  PC potential                    false          :
          :  electronic temp.          300.0000000     K    :
          :  accuracy                    1.0000000          :
          :  -> integral cutoff          0.2500000E+02      :
          :  -> integral neglect         0.1000000E-07      :
          :  -> SCF convergence          0.1000000E-05 Eh   :
          :  -> wf. convergence          0.1000000E-03 e    :
          :  Broyden damping             0.4000000          :
          ...................................................

 iter      E             dE          RMSdq      gap      omega  full diag
   1   -237.8509017 -0.237851E+03  0.609E+00    2.75       0.0  T
   2   -237.9367618 -0.858601E-01  0.385E+00    2.95       1.0  T
   3   -237.3819136  0.554848E+00  0.262E+00    2.81       1.0  T
   4   -238.1659329 -0.784019E+00  0.490E-01    2.62       1.0  T
   5   -238.1795783 -0.136453E-01  0.170E-01    2.62       1.0  T
   6   -238.1804172 -0.838928E-03  0.732E-02    2.60       1.0  T
   7   -238.1808016 -0.384429E-03  0.272E-02    2.61       1.0  T
   8   -238.1808115 -0.985987E-05  0.149E-02    2.61       1.0  T
   9   -238.1808305 -0.189742E-04  0.515E-03    2.61       1.5  T
  10   -238.1808331 -0.258034E-05  0.132E-03    2.61       6.0  T
  11   -238.1808331 -0.864393E-07  0.731E-04    2.61      10.8  T
  12   -238.1808332 -0.228069E-07  0.248E-04    2.61      31.9  T

   *** convergence criteria satisfied after 12 iterations ***

         #    Occupation            Energy/Eh            Energy/eV
      -------------------------------------------------------------
         1        2.0000           -0.7101911             -19.3253
       ...           ...                  ...                  ...
       209        2.0000           -0.4063931             -11.0585
       210        2.0000           -0.4047746             -11.0145
       211        2.0000           -0.4008726             -10.9083
       212        2.0000           -0.3996385             -10.8747
       213        2.0000           -0.3993853             -10.8678
       214        2.0000           -0.3764627             -10.2441
       215        2.0000           -0.3425032              -9.3200 (HOMO)
       216                         -0.2466579              -6.7119 (LUMO)
       217                         -0.2465622              -6.7093
       218                         -0.2406772              -6.5492
       219                         -0.2405407              -6.5454
       220                         -0.2383279              -6.4852
       ...                                ...                  ...
       408                          1.0720082              29.1708
      -------------------------------------------------------------
                  HL-Gap            0.0958453 Eh            2.6081 eV
             Fermi-level           -0.2945805 Eh           -8.0159 eV

 SCC (total)                   0 d,  0 h,  0 min,  1.250 sec
 SCC setup                      ...        0 min,  0.003 sec (  0.229%)
 Dispersion                     ...        0 min,  0.005 sec (  0.415%)
 classical contributions        ...        0 min,  0.002 sec (  0.154%)
 integral evaluation            ...        0 min,  0.032 sec (  2.524%)
 iterations                     ...        0 min,  0.908 sec ( 72.615%)
 molecular gradient             ...        0 min,  0.293 sec ( 23.410%)
 printout                       ...        0 min,  0.008 sec (  0.651%)

         :::::::::::::::::::::::::::::::::::::::::::::::::::::
         ::                     SUMMARY                     ::
         :::::::::::::::::::::::::::::::::::::::::::::::::::::
         :: total energy            -234.122782639363 Eh    ::
         :: gradient norm              0.231900679270 Eh/a0 ::
         :: HOMO-LUMO gap              2.608082162491 eV    ::
         ::.................................................::
         :: SCC energy              -238.180833159904 Eh    ::
         :: -> isotropic ES            0.228662764497 Eh    ::
         :: -> anisotropic ES          0.043570208046 Eh    ::
         :: -> anisotropic XC          0.405466212329 Eh    ::
         :: -> dispersion             -0.084957565560 Eh    ::
         :: repulsion energy           4.057025619653 Eh    ::
         :: add. restraining           0.000000000000 Eh    ::
         :: total charge               0.000000000000 e     ::
         :::::::::::::::::::::::::::::::::::::::::::::::::::::

      ----------------------------------------------------------- 
     |                   =====================                   |
     |                        A N C O P T                        |
     |                   =====================                   |
     |               Approximate Normal Coordinate               |
     |                Rational Function Optimizer                |
      ----------------------------------------------------------- 

          ...................................................
          :                      SETUP                      :
          :.................................................:
          :   optimization level            normal          :
          :   max. optcycles                   480          :
          :   ANC micro-cycles                  20          :
          :   degrees of freedom               474          :
          :.................................................:
          :   RF solver                   davidson          :
          :   write xtbopt.log                true          :
          :   linear?                        false          :
          :   energy convergence         0.5000000E-05 Eh   :
          :   grad. convergence          0.1000000E-02 Eh/α :
          :   maxmium RF displ.          1.0000000          :
          :   Hlow (freq-cutoff)         0.1000000E-01      :
          :   Hmax (freq-cutoff)         5.0000000          :
          :   S6 in model hess.         20.0000000          :
          ...................................................

generating ANC from model Hessian ...
Using Lindh-Hessian (1995)
 Shifting diagonal of input Hessian by    1.0027164337206350E-002
 Lowest  eigenvalues of input Hessian
    0.010000    0.010014    0.010017    0.010021    0.010023    0.010023
    0.010025    0.010025    0.010026    0.010026    0.010026    0.010026
    0.010026    0.010026    0.010027    0.010027    0.010027    0.000000
 Highest eigenvalues
    2.459198    2.459198    2.459199    2.459213    2.459214    2.459255


........................................................................
.............................. CYCLE    1 ..............................
........................................................................

 iter      E             dE          RMSdq      gap      omega  full diag
   1   -238.1808332 -0.238181E+03  0.139E-04    2.61       0.0  T
   2   -238.1808332  0.140972E-10  0.124E-04    2.61      63.9  T
   3   -238.1808332 -0.188169E-08  0.453E-05    2.61     174.5  T
     SCC iter.                  ...        0 min,  0.225 sec
     gradient                   ...        0 min,  0.292 sec
 * total energy  :  -234.1227826 Eh     change       -0.4421338E-08 Eh
   gradient norm :     0.2319033 Eh/α   predicted     0.0000000E+00 (-100.00%)
   displ. norm   :     0.3923839 α      lambda       -0.5498352E-01
   maximum displ.:     0.1060838 α      in ANC's #260, #252, #248, ...

........................................................................
.............................. CYCLE    2 ..............................
........................................................................

 iter      E             dE          RMSdq      gap      omega  full diag
   1   -238.5746884 -0.238575E+03  0.209E-01    2.86       0.0  T
   2   -238.5747425 -0.541347E-04  0.147E-01    2.87       1.0  T
   3   -238.5748125 -0.699727E-04  0.908E-02    2.86       1.0  T
   4   -238.5754113 -0.598806E-03  0.890E-03    2.86       1.0  T
   5   -238.5754145 -0.326541E-05  0.390E-03    2.87       2.0  T
   6   -238.5754147 -0.182482E-06  0.213E-03    2.86       3.7  T
   7   -238.5754152 -0.483603E-06  0.400E-04    2.86      19.8  T
   8   -238.5754152 -0.718430E-08  0.202E-04    2.86      39.1  T
     SCC iter.                  ...        0 min,  0.592 sec
     gradient                   ...        0 min,  0.292 sec
 * total energy  :  -234.1526355 Eh     change       -0.2985287E-01 Eh
   gradient norm :     0.0701166 Eh/α   predicted    -0.3175783E-01 (   6.38%)
   displ. norm   :     0.2125155 α      lambda       -0.6131276E-02
   maximum displ.:     0.0549744 α      in ANC's #260, #252, #248, ...

........................................................................
.............................. CYCLE    3 ..............................
........................................................................

 iter      E             dE          RMSdq      gap      omega  full diag
   1   -238.5932470 -0.238593E+03  0.858E-02    2.85       0.0  T
   2   -238.5932913 -0.443189E-04  0.638E-02    2.86       1.0  T
   3   -238.5933174 -0.261099E-04  0.351E-02    2.87       1.0  T
   4   -238.5933983 -0.809540E-04  0.777E-03    2.87       1.0  T
   5   -238.5934017 -0.334648E-05  0.290E-03    2.87       2.7  T
   6   -238.5934022 -0.501909E-06  0.135E-03    2.87       5.8  T
   7   -238.5934024 -0.221359E-06  0.250E-04    2.87      31.6  T
   8   -238.5934024 -0.140341E-08  0.155E-04    2.87      50.9  T
     SCC iter.                  ...        0 min,  0.593 sec
     gradient                   ...        0 min,  0.292 sec
 * total energy  :  -234.1561684 Eh     change       -0.3532920E-02 Eh
   gradient norm :     0.0092004 Eh/α   predicted    -0.3206029E-02 (  -9.25%)
   displ. norm   :     0.1362774 α      lambda       -0.3933794E-03
   maximum displ.:     0.0365429 α      in ANC's #97, #103, #100, ...

........................................................................
.............................. CYCLE    4 ..............................
........................................................................

 iter      E             dE          RMSdq      gap      omega  full diag
   1   -238.5971035 -0.238597E+03  0.328E-02    2.85       0.0  T
   2   -238.5971086 -0.509734E-05  0.195E-02    2.86       1.0  T
   3   -238.5970951  0.134577E-04  0.109E-02    2.86       1.0  T
   4   -238.5971126 -0.174844E-04  0.236E-03    2.86       3.3  T
   5   -238.5971129 -0.267086E-06  0.102E-03    2.86       7.8  T
   6   -238.5971129 -0.668332E-07  0.477E-04    2.86      16.6  T
   7   -238.5971129 -0.198846E-07  0.114E-04    2.86      69.2  T
     SCC iter.                  ...        0 min,  0.520 sec
     gradient                   ...        0 min,  0.292 sec
 * total energy  :  -234.1564543 Eh     change       -0.2858429E-03 Eh
   gradient norm :     0.0041923 Eh/α   predicted    -0.2005708E-03 ( -29.83%)
   displ. norm   :     0.2947569 α      lambda       -0.4559000E-03
   maximum displ.:     0.0842585 α      in ANC's #97, #103, #100, ...

........................................................................
.............................. CYCLE    5 ..............................
........................................................................

 iter      E             dE          RMSdq      gap      omega  full diag
   1   -238.5983635 -0.238598E+03  0.793E-02    2.83       0.0  T
   2   -238.5983819 -0.183897E-04  0.446E-02    2.84       1.0  T
   3   -238.5983619  0.199581E-04  0.126E-02    2.84       1.0  T
   4   -238.5983900 -0.281246E-04  0.316E-03    2.84       2.5  T
   5   -238.5983905 -0.447466E-06  0.153E-03    2.84       5.2  T
   6   -238.5983905 -0.809951E-07  0.717E-04    2.84      11.0  T
   7   -238.5983906 -0.516548E-07  0.188E-04    2.84      42.1  T
     SCC iter.                  ...        0 min,  0.520 sec
     gradient                   ...        0 min,  0.292 sec
 * total energy  :  -234.1566996 Eh     change       -0.2453163E-03 Eh
   gradient norm :     0.0116804 Eh/α   predicted    -0.2477617E-03 (   1.00%)
   displ. norm   :     0.4761068 α      lambda       -0.7127888E-03
   maximum displ.:     0.1396623 α      in ANC's #97, #103, #100, ...

........................................................................
.............................. CYCLE    6 ..............................
........................................................................

 iter      E             dE          RMSdq      gap      omega  full diag
   1   -238.5975943 -0.238598E+03  0.106E-01    2.82       0.0  T
   2   -238.5976238 -0.294827E-04  0.596E-02    2.83       1.0  T
   3   -238.5976116  0.121875E-04  0.118E-02    2.82       1.0  T
   4   -238.5976352 -0.235815E-04  0.395E-03    2.82       2.0  T
   5   -238.5976359 -0.726993E-06  0.185E-03    2.82       4.3  T
   6   -238.5976360 -0.939645E-07  0.831E-04    2.82       9.5  T
   7   -238.5976361 -0.719309E-07  0.235E-04    2.82      33.7  T
     SCC iter.                  ...        0 min,  0.520 sec
     gradient                   ...        0 min,  0.292 sec
 * total energy  :  -234.1570781 Eh     change       -0.3784689E-03 Eh
   gradient norm :     0.0162069 Eh/α   predicted    -0.4371894E-03 (  15.52%)
   displ. norm   :     0.3305408 α      lambda       -0.5005631E-03
   maximum displ.:     0.0988999 α      in ANC's #103, #97, #52, ...

........................................................................
.............................. CYCLE    7 ..............................
........................................................................

 iter      E             dE          RMSdq      gap      omega  full diag
   1   -238.5963348 -0.238596E+03  0.679E-02    2.82       0.0  T
   2   -238.5963458 -0.109343E-04  0.382E-02    2.82       1.0  T
   3   -238.5963457  0.692562E-07  0.592E-03    2.82       1.3  T
   4   -238.5963502 -0.450614E-05  0.234E-03    2.82       3.4  T
   5   -238.5963503 -0.966746E-07  0.836E-04    2.82       9.5  T
   6   -238.5963504 -0.788764E-07  0.254E-04    2.82      31.2  T
     SCC iter.                  ...        0 min,  0.446 sec
     gradient                   ...        0 min,  0.292 sec
 * total energy  :  -234.1575377 Eh     change       -0.4596662E-03 Eh
   gradient norm :     0.0117344 Eh/α   predicted    -0.2776387E-03 ( -39.60%)
   displ. norm   :     0.6641922 α      lambda       -0.1134471E-02
   maximum displ.:     0.1924578 α      in ANC's #103, #52, #97, ...

........................................................................
.............................. CYCLE    8 ..............................
........................................................................

 iter      E             dE          RMSdq      gap      omega  full diag
   1   -238.5935833 -0.238594E+03  0.137E-01    2.83       0.0  T
   2   -238.5936323 -0.490087E-04  0.767E-02    2.82       1.0  T
   3   -238.5936044  0.278360E-04  0.165E-02    2.82       1.0  T
   4   -238.5936533 -0.488900E-04  0.474E-03    2.82       1.7  T
   5   -238.5936540 -0.637279E-06  0.231E-03    2.82       3.4  T
   6   -238.5936542 -0.235884E-06  0.980E-04    2.82       8.1  T
   7   -238.5936543 -0.102588E-06  0.268E-04    2.82      29.5  T
     SCC iter.                  ...        0 min,  0.519 sec
     gradient                   ...        0 min,  0.292 sec
 * total energy  :  -234.1583544 Eh     change       -0.8167145E-03 Eh
   gradient norm :     0.0076270 Eh/α   predicted    -0.8174850E-03 (   0.09%)
   displ. norm   :     0.7216986 α      lambda       -0.9518960E-03
   maximum displ.:     0.2084751 α      in ANC's #52, #103, #97, ...

........................................................................
.............................. CYCLE    9 ..............................
........................................................................

 iter      E             dE          RMSdq      gap      omega  full diag
   1   -238.5796862 -0.238580E+03  0.173E-01    2.83       0.0  T
   2   -238.5797575 -0.712937E-04  0.965E-02    2.82       1.0  T
   3   -238.5797630 -0.547803E-05  0.126E-02    2.82       1.0  T
   4   -238.5797855 -0.225362E-04  0.507E-03    2.82       1.6  T
   5   -238.5797864 -0.853799E-06  0.209E-03    2.82       3.8  T
   6   -238.5797866 -0.231963E-06  0.839E-04    2.82       9.4  T
   7   -238.5797867 -0.932464E-07  0.254E-04    2.82      31.1  T
     SCC iter.                  ...        0 min,  0.519 sec
     gradient                   ...        0 min,  0.294 sec
 * total energy  :  -234.1586309 Eh     change       -0.2764826E-03 Eh
   gradient norm :     0.0237221 Eh/α   predicted    -0.7238534E-03 ( 161.81%)
   displ. norm   :     0.4326924 α      lambda       -0.1057616E-02
   maximum displ.:     0.1280553 α      in ANC's #52, #103, #100, ...

........................................................................
.............................. CYCLE   10 ..............................
........................................................................

 iter      E             dE          RMSdq      gap      omega  full diag
   1   -238.5768512 -0.238577E+03  0.977E-02    2.79       0.0  T
   2   -238.5768737 -0.224571E-04  0.547E-02    2.80       1.0  T
   3   -238.5768756 -0.188265E-05  0.741E-03    2.79       1.1  T
   4   -238.5768822 -0.669502E-05  0.305E-03    2.80       2.6  T
   5   -238.5768826 -0.373074E-06  0.121E-03    2.80       6.5  T
   6   -238.5768827 -0.477176E-07  0.470E-04    2.80      16.8  T
   7   -238.5768827 -0.301144E-07  0.145E-04    2.80      54.5  T
     SCC iter.                  ...        0 min,  0.523 sec
     gradient                   ...        0 min,  0.292 sec
 * total energy  :  -234.1592883 Eh     change       -0.6573634E-03 Eh
   gradient norm :     0.0133790 Eh/α   predicted    -0.6278236E-03 (  -4.49%)
   displ. norm   :     0.3325613 α      lambda       -0.9965197E-03
   maximum displ.:     0.1225271 α      in ANC's #52, #45, #57, ...

........................................................................
.............................. CYCLE   11 ..............................
........................................................................

 iter      E             dE          RMSdq      gap      omega  full diag
   1   -238.6065894 -0.238607E+03  0.895E-02    2.84       0.0  T
   2   -238.6066070 -0.175978E-04  0.515E-02    2.83       1.0  T
   3   -238.6065146  0.924274E-04  0.286E-02    2.84       1.0  T
   4   -238.6066279 -0.113265E-03  0.288E-03    2.83       2.7  T
   5   -238.6066281 -0.227596E-06  0.103E-03    2.83       7.6  T
   6   -238.6066281 -0.209644E-07  0.487E-04    2.83      16.2  T
   7   -238.6066281 -0.313132E-07  0.143E-04    2.83      55.2  T
     SCC iter.                  ...        0 min,  0.519 sec
     gradient                   ...        0 min,  0.292 sec
 * total energy  :  -234.1595526 Eh     change       -0.2643394E-03 Eh
   gradient norm :     0.0230858 Eh/α   predicted    -0.5533681E-03 ( 109.34%)
   displ. norm   :     0.5068805 α      lambda       -0.1115251E-02
   maximum displ.:     0.1653286 α      in ANC's #52, #97, #45, ...

........................................................................
.............................. CYCLE   12 ..............................
........................................................................

 iter      E             dE          RMSdq      gap      omega  full diag
   1   -238.6099575 -0.238610E+03  0.119E-01    2.80       0.0  T
   2   -238.6099902 -0.326450E-04  0.665E-02    2.80       1.0  T
   3   -238.6099831  0.704103E-05  0.127E-02    2.80       1.0  T
   4   -238.6100042 -0.211072E-04  0.320E-03    2.80       2.5  T
   5   -238.6100045 -0.242686E-06  0.958E-04    2.80       8.3  T
   6   -238.6100045 -0.153482E-07  0.342E-04    2.80      23.1  T
     SCC iter.                  ...        0 min,  0.446 sec
     gradient                   ...        0 min,  0.293 sec
 * total energy  :  -234.1601986 Eh     change       -0.6459514E-03 Eh
   gradient norm :     0.0208359 Eh/α   predicted    -0.7009017E-03 (   8.51%)
   displ. norm   :     0.6804657 α      lambda       -0.1318724E-02
   maximum displ.:     0.2287895 α      in ANC's #97, #100, #52, ...

........................................................................
.............................. CYCLE   13 ..............................
........................................................................

 iter      E             dE          RMSdq      gap      omega  full diag
   1   -238.5718602 -0.238572E+03  0.157E-01    2.81       0.0  T
   2   -238.5719189 -0.586609E-04  0.885E-02    2.81       1.0  T
   3   -238.5718075  0.111361E-03  0.322E-02    2.80       1.0  T
   4   -238.5719533 -0.145815E-03  0.491E-03    2.81       1.6  T
   5   -238.5719538 -0.469191E-06  0.191E-03    2.81       4.1  T
   6   -238.5719538  0.667893E-08  0.818E-04    2.81       9.7  T
   7   -238.5719539 -0.959080E-07  0.230E-04    2.81      34.4  T
     SCC iter.                  ...        0 min,  0.521 sec
     gradient                   ...        0 min,  0.292 sec
 * total energy  :  -234.1605265 Eh     change       -0.3279740E-03 Eh
   gradient norm :     0.0345983 Eh/α   predicted    -0.9646783E-03 ( 194.13%)
   displ. norm   :     0.3960420 α      lambda       -0.1237063E-02
   maximum displ.:     0.1439557 α      in ANC's #52, #45, #57, ...

........................................................................
.............................. CYCLE   14 ..............................
........................................................................

 iter      E             dE          RMSdq      gap      omega  full diag
   1   -238.5849890 -0.238585E+03  0.845E-02    2.79       0.0  T
   2   -238.5850053 -0.163784E-04  0.476E-02    2.79       1.0  T
   3   -238.5849601  0.452397E-04  0.201E-02    2.79       1.0  T
   4   -238.5850168 -0.567385E-04  0.237E-03    2.79       3.3  T
   5   -238.5850169 -0.109557E-06  0.988E-04    2.79       8.0  T
   6   -238.5850169  0.690846E-09  0.434E-04    2.79      18.2  T
     SCC iter.                  ...        0 min,  0.445 sec
     gradient                   ...        0 min,  0.292 sec
 * total energy  :  -234.1612204 Eh     change       -0.6938999E-03 Eh
   gradient norm :     0.0163876 Eh/α   predicted    -0.7155504E-03 (   3.12%)
   displ. norm   :     0.4301101 α      lambda       -0.1530939E-02
   maximum displ.:     0.1677555 α      in ANC's #52, #45, #57, ...

........................................................................
.............................. CYCLE   15 ..............................
........................................................................

 iter      E             dE          RMSdq      gap      omega  full diag
   1   -238.6321000 -0.238632E+03  0.120E-01    2.83       0.0  T
   2   -238.6321338 -0.338002E-04  0.697E-02    2.82       1.0  T
   3   -238.6319494  0.184417E-03  0.415E-02    2.83       1.0  T
   4   -238.6321796 -0.230207E-03  0.423E-03    2.82       1.9  T
   5   -238.6321802 -0.542120E-06  0.178E-03    2.82       4.4  T
   6   -238.6321802 -0.211011E-07  0.915E-04    2.82       8.6  T
   7   -238.6321803 -0.938402E-07  0.224E-04    2.82      35.4  T
     SCC iter.                  ...        0 min,  0.518 sec
     gradient                   ...        0 min,  0.294 sec
 * total energy  :  -234.1609290 Eh     change        0.2914226E-03 Eh
   gradient norm :     0.0471667 Eh/α   predicted    -0.9070819E-03 (-411.26%)
   displ. norm   :     0.3548329 α      lambda       -0.2143872E-02
   maximum displ.:     0.1368787 α      in ANC's #97, #52, #100, ...

........................................................................
.............................. CYCLE   16 ..............................
........................................................................

 iter      E             dE          RMSdq      gap      omega  full diag
   1   -238.6006231 -0.238601E+03  0.122E-01    2.79       0.0  T
   2   -238.6006610 -0.379379E-04  0.683E-02    2.80       1.0  T
   3   -238.6005925  0.684504E-04  0.253E-02    2.79       1.0  T
   4   -238.6006821 -0.895793E-04  0.348E-03    2.80       2.3  T
   5   -238.6006825 -0.402780E-06  0.148E-03    2.80       5.3  T
   6   -238.6006825  0.125222E-07  0.529E-04    2.80      14.9  T
   7   -238.6006826 -0.373688E-07  0.171E-04    2.80      46.4  T
     SCC iter.                  ...        0 min,  0.534 sec
     gradient                   ...        0 min,  0.293 sec
 * total energy  :  -234.1619310 Eh     change       -0.1001970E-02 Eh
   gradient norm :     0.0246894 Eh/α   predicted    -0.1206897E-02 (  20.45%)
   displ. norm   :     0.4352258 α      lambda       -0.2475019E-02
   maximum displ.:     0.1347700 α      in ANC's #132, #97, #128, ...

........................................................................
.............................. CYCLE   17 ..............................
........................................................................

 iter      E             dE          RMSdq      gap      omega  full diag
   1   -238.5780387 -0.238578E+03  0.214E-01    2.80       0.0  T
   2   -238.5781391 -0.100326E-03  0.120E-01    2.81       1.0  T
   3   -238.5778125  0.326511E-03  0.528E-02    2.80       1.0  T
   4   -238.5782151 -0.402568E-03  0.594E-03    2.81       1.3  T
   5   -238.5782162 -0.112158E-05  0.252E-03    2.81       3.1  T
   6   -238.5782163 -0.960358E-07  0.139E-03    2.81       5.7  T
   7   -238.5782166 -0.226778E-06  0.278E-04    2.81      28.4  T
   8   -238.5782166  0.153761E-10  0.107E-04    2.81      73.8  T
     SCC iter.                  ...        0 min,  0.595 sec
     gradient                   ...        0 min,  0.296 sec
 * total energy  :  -234.1599265 Eh     change        0.2004544E-02 Eh
   gradient norm :     0.0631341 Eh/α   predicted    -0.1471921E-02 (-173.43%)
   displ. norm   :     0.2586388 α      lambda       -0.5308153E-02
   maximum displ.:     0.0896661 α      in ANC's #132, #128, #140, ...

........................................................................
.............................. CYCLE   18 ..............................
........................................................................

 iter      E             dE          RMSdq      gap      omega  full diag
   1   -238.5951336 -0.238595E+03  0.156E-01    2.82       0.0  T
   2   -238.5951899 -0.563091E-04  0.875E-02    2.81       1.0  T
   3   -238.5950327  0.157247E-03  0.373E-02    2.82       1.0  T
   4   -238.5952298 -0.197187E-03  0.379E-03    2.81       2.1  T
   5   -238.5952303 -0.494323E-06  0.154E-03    2.81       5.1  T
   6   -238.5952303  0.168370E-07  0.723E-04    2.81      10.9  T
   7   -238.5952304 -0.637543E-07  0.189E-04    2.81      41.8  T
     SCC iter.                  ...        0 min,  0.522 sec
     gradient                   ...        0 min,  0.292 sec
 * total energy  :  -234.1626350 Eh     change       -0.2708593E-02 Eh
   gradient norm :     0.0187604 Eh/α   predicted    -0.2831617E-02 (   4.54%)
   displ. norm   :     0.4889044 α      lambda       -0.1592539E-02
   maximum displ.:     0.1734497 α      in ANC's #52, #45, #97, ...

........................................................................
.............................. CYCLE   19 ..............................
........................................................................

 iter      E             dE          RMSdq      gap      omega  full diag
   1   -238.6064256 -0.238606E+03  0.172E-01    2.67       0.0  T
   2   -238.6065014 -0.757643E-04  0.966E-02    2.68       1.0  T
   3   -238.6063904  0.111043E-03  0.326E-02    2.69       1.0  T
   4   -238.6065397 -0.149320E-03  0.495E-03    2.68       1.6  T
   5   -238.6065407 -0.105791E-05  0.200E-03    2.68       4.0  T
   6   -238.6065407  0.454719E-07  0.105E-03    2.68       7.6  T
   7   -238.6065408 -0.134046E-06  0.267E-04    2.68      29.6  T
   8   -238.6065408 -0.105351E-08  0.111E-04    2.68      70.9  T
     SCC iter.                  ...        0 min,  0.592 sec
     gradient                   ...        0 min,  0.292 sec
 * total energy  :  -234.1611672 Eh     change        0.1467872E-02 Eh
   gradient norm :     0.0775047 Eh/α   predicted    -0.9866029E-03 (-167.21%)
   displ. norm   :     0.2447707 α      lambda       -0.4321521E-02
   maximum displ.:     0.0801549 α      in ANC's #148, #130, #135, ...

........................................................................
.............................. CYCLE   20 ..............................
........................................................................

 iter      E             dE          RMSdq      gap      omega  full diag
   1   -238.6049167 -0.238605E+03  0.141E-01    2.83       0.0  T
   2   -238.6049684 -0.516648E-04  0.785E-02    2.82       1.0  T
   3   -238.6049793 -0.109339E-04  0.751E-03    2.81       1.1  T
   4   -238.6049838 -0.448524E-05  0.443E-03    2.82       1.8  T
   5   -238.6049856 -0.185628E-05  0.140E-03    2.82       5.7  T
   6   -238.6049857 -0.300437E-07  0.272E-04    2.82      29.1  T
   7   -238.6049857  0.152539E-09  0.175E-04    2.82      45.1  T
     SCC iter.                  ...        0 min,  0.519 sec
     gradient                   ...        0 min,  0.293 sec
 * total energy  :  -234.1633470 Eh     change       -0.2179874E-02 Eh
   gradient norm :     0.0195076 Eh/α   predicted    -0.2290221E-02 (   5.06%)
   displ. norm   :     0.5735025 α      lambda       -0.1471430E-02
   maximum displ.:     0.2094617 α      in ANC's #100, #52, #45, ...
 * RMSD in coord.:     0.5587340 α      energy gain  -0.4056441E-01 Eh

generating ANC from model Hessian ...
Using Lindh-Hessian (1995)
 Shifting diagonal of input Hessian by    1.0076164484876800E-002
 Lowest  eigenvalues of input Hessian
    0.010000    0.010035    0.010052    0.010055    0.010065    0.010070
    0.010071    0.010072    0.010073    0.010073    0.010074    0.010074
    0.010074    0.010075    0.010075    0.010075    0.010075    0.010076
 Highest eigenvalues
    2.578821    2.579199    2.579377    2.580570    2.585314    2.612260


........................................................................
.............................. CYCLE   21 ..............................
........................................................................

 iter      E             dE          RMSdq      gap      omega  full diag
   1   -238.5675707 -0.238568E+03  0.156E-01    2.72       0.0  T
   2   -238.5676291 -0.584587E-04  0.883E-02    2.73       1.0  T
   3   -238.5674055  0.223595E-03  0.439E-02    2.73       1.0  T
   4   -238.5676779 -0.272386E-03  0.481E-03    2.73       1.6  T
   5   -238.5676785 -0.613138E-06  0.213E-03    2.73       3.7  T
   6   -238.5676785  0.576059E-07  0.122E-03    2.73       6.5  T
   7   -238.5676786 -0.184777E-06  0.230E-04    2.73      34.4  T
   8   -238.5676786 -0.114113E-09  0.104E-04    2.73      75.8  T
     SCC iter.                  ...        0 min,  0.595 sec
     gradient                   ...        0 min,  0.293 sec
 * total energy  :  -234.1626908 Eh     change        0.6562721E-03 Eh
   gradient norm :     0.0592695 Eh/α   predicted     0.0000000E+00 (-100.00%)
   displ. norm   :     0.1362903 α      lambda       -0.2557513E-02
   maximum displ.:     0.0310459 α      in ANC's #55, #82, #60, ...

........................................................................
.............................. CYCLE   22 ..............................
........................................................................

 iter      E             dE          RMSdq      gap      omega  full diag
   1   -238.6065454 -0.238607E+03  0.632E-02    2.81       0.0  T
   2   -238.6065588 -0.133535E-04  0.375E-02    2.80       1.0  T
   3   -238.6065008  0.579333E-04  0.253E-02    2.80       1.0  T
   4   -238.6065783 -0.774180E-04  0.283E-03    2.80       2.8  T
   5   -238.6065786 -0.354328E-06  0.123E-03    2.80       6.4  T
   6   -238.6065786  0.256753E-07  0.638E-04    2.80      12.4  T
   7   -238.6065786 -0.509027E-07  0.129E-04    2.80      61.2  T
     SCC iter.                  ...        0 min,  0.526 sec
     gradient                   ...        0 min,  0.298 sec
 * total energy  :  -234.1639208 Eh     change       -0.1230071E-02 Eh
   gradient norm :     0.0170364 Eh/α   predicted    -0.1303164E-02 (   5.94%)
   displ. norm   :     0.1753918 α      lambda       -0.5842764E-03
   maximum displ.:     0.0426190 α      in ANC's #55, #131, #136, ...

........................................................................
.............................. CYCLE   23 ..............................
........................................................................

 iter      E             dE          RMSdq      gap      omega  full diag
   1   -238.6110350 -0.238611E+03  0.674E-02    2.80       0.0  T
   2   -238.6110443 -0.922583E-05  0.378E-02    2.80       1.0  T
   3   -238.6110340  0.102216E-04  0.102E-02    2.80       1.0  T
   4   -238.6110492 -0.151828E-04  0.154E-03    2.80       5.1  T
   5   -238.6110493 -0.549529E-07  0.309E-04    2.80      25.6  T
   6   -238.6110493 -0.504309E-08  0.174E-04    2.80      45.4  T
     SCC iter.                  ...        0 min,  0.454 sec
     gradient                   ...        0 min,  0.297 sec
 * total energy  :  -234.1641290 Eh     change       -0.2081719E-03 Eh
   gradient norm :     0.0157866 Eh/α   predicted    -0.3011279E-03 (  44.65%)
   displ. norm   :     0.2751941 α      lambda       -0.8401907E-03
   maximum displ.:     0.0769562 α      in ANC's #55, #82, #60, ...

........................................................................
.............................. CYCLE   24 ..............................
........................................................................

 iter      E             dE          RMSdq      gap      omega  full diag
   1   -238.6067119 -0.238607E+03  0.851E-02    2.78       0.0  T
   2   -238.6067272 -0.152541E-04  0.477E-02    2.78       1.0  T
   3   -238.6067106  0.165477E-04  0.130E-02    2.78       1.0  T
   4   -238.6067349 -0.243301E-04  0.236E-03    2.78       3.4  T
   5   -238.6067351 -0.152664E-06  0.666E-04    2.78      11.9  T
   6   -238.6067351 -0.460912E-08  0.263E-04    2.78      30.0  T
     SCC iter.                  ...        0 min,  0.456 sec
     gradient                   ...        0 min,  0.295 sec
 * total energy  :  -234.1647436 Eh     change       -0.6145583E-03 Eh
   gradient norm :     0.0096289 Eh/α   predicted    -0.4519250E-03 ( -26.46%)
   displ. norm   :     0.4745781 α      lambda       -0.8027417E-03
   maximum displ.:     0.1362631 α      in ANC's #55, #82, #60, ...

........................................................................
.............................. CYCLE   25 ..............................
........................................................................

 iter      E             dE          RMSdq      gap      omega  full diag
   1   -238.5990926 -0.238599E+03  0.121E-01    2.77       0.0  T
   2   -238.5991221 -0.294469E-04  0.673E-02    2.77       1.0  T
   3   -238.5991273 -0.525203E-05  0.782E-03    2.77       1.0  T
   4   -238.5991339 -0.655481E-05  0.334E-03    2.77       2.4  T
   5   -238.5991343 -0.358716E-06  0.667E-04    2.77      11.8  T
   6   -238.5991343 -0.215358E-07  0.289E-04    2.77      27.4  T
     SCC iter.                  ...        0 min,  0.448 sec
     gradient                   ...        0 min,  0.293 sec
 * total energy  :  -234.1653878 Eh     change       -0.6442734E-03 Eh
   gradient norm :     0.0163870 Eh/α   predicted    -0.4917712E-03 ( -23.67%)
   displ. norm   :     0.6475487 α      lambda       -0.9095625E-03
   maximum displ.:     0.1897403 α      in ANC's #55, #60, #82, ...

........................................................................
.............................. CYCLE   26 ..............................
........................................................................

 iter      E             dE          RMSdq      gap      omega  full diag
   1   -238.5923565 -0.238592E+03  0.146E-01    2.79       0.0  T
   2   -238.5923980 -0.414782E-04  0.815E-02    2.79       1.0  T
   3   -238.5924078 -0.976459E-05  0.858E-03    2.79       1.0  T
   4   -238.5924142 -0.642781E-05  0.424E-03    2.79       1.9  T
   5   -238.5924149 -0.672529E-06  0.795E-04    2.79       9.9  T
   6   -238.5924149 -0.385578E-07  0.366E-04    2.79      21.6  T
     SCC iter.                  ...        0 min,  0.447 sec
     gradient                   ...        0 min,  0.293 sec
 * total energy  :  -234.1660198 Eh     change       -0.6319228E-03 Eh
   gradient norm :     0.0175463 Eh/α   predicted    -0.6454801E-03 (   2.15%)
   displ. norm   :     0.6381482 α      lambda       -0.1039657E-02
   maximum displ.:     0.1919885 α      in ANC's #55, #60, #53, ...

........................................................................
.............................. CYCLE   27 ..............................
........................................................................

 iter      E             dE          RMSdq      gap      omega  full diag
   1   -238.5887813 -0.238589E+03  0.148E-01    2.77       0.0  T
   2   -238.5888275 -0.461893E-04  0.827E-02    2.77       1.0  T
   3   -238.5888316 -0.403209E-05  0.112E-02    2.78       1.0  T
   4   -238.5888462 -0.146146E-04  0.427E-03    2.77       1.9  T
   5   -238.5888467 -0.539142E-06  0.915E-04    2.77       8.6  T
   6   -238.5888468 -0.426376E-07  0.407E-04    2.77      19.4  T
     SCC iter.                  ...        0 min,  0.446 sec
     gradient                   ...        0 min,  0.293 sec
 * total energy  :  -234.1666083 Eh     change       -0.5885722E-03 Eh
   gradient norm :     0.0161862 Eh/α   predicted    -0.7315229E-03 (  24.29%)
   displ. norm   :     0.4505011 α      lambda       -0.7571661E-03
   maximum displ.:     0.1466547 α      in ANC's #55, #60, #53, ...

........................................................................
.............................. CYCLE   28 ..............................
........................................................................

 iter      E             dE          RMSdq      gap      omega  full diag
   1   -238.5975490 -0.238598E+03  0.941E-02    2.81       0.0  T
   2   -238.5975658 -0.167987E-04  0.527E-02    2.81       1.0  T
   3   -238.5975535  0.123746E-04  0.122E-02    2.81       1.0  T
   4   -238.5975740 -0.205301E-04  0.269E-03    2.81       2.9  T
   5   -238.5975741 -0.114811E-06  0.619E-04    2.81      12.8  T
   6   -238.5975741 -0.185756E-07  0.277E-04    2.81      28.5  T
     SCC iter.                  ...        0 min,  0.444 sec
     gradient                   ...        0 min,  0.292 sec
 * total energy  :  -234.1672313 Eh     change       -0.6229637E-03 Eh
   gradient norm :     0.0136336 Eh/α   predicted    -0.4554232E-03 ( -26.89%)
   displ. norm   :     0.5791823 α      lambda       -0.1619166E-02
   maximum displ.:     0.1970480 α      in ANC's #55, #60, #53, ...

........................................................................
.............................. CYCLE   29 ..............................
........................................................................

 iter      E             dE          RMSdq      gap      omega  full diag
   1   -238.6359745 -0.238636E+03  0.128E-01    2.85       0.0  T
   2   -238.6360109 -0.364233E-04  0.719E-02    2.84       1.0  T
   3   -238.6359271  0.838412E-04  0.275E-02    2.85       1.0  T
   4   -238.6360337 -0.106602E-03  0.393E-03    2.84       2.0  T
   5   -238.6360341 -0.457902E-06  0.159E-03    2.84       5.0  T
   6   -238.6360341  0.910029E-08  0.591E-04    2.84      13.4  T
   7   -238.6360342 -0.509552E-07  0.186E-04    2.84      42.6  T
     SCC iter.                  ...        0 min,  0.520 sec
     gradient                   ...        0 min,  0.292 sec
 * total energy  :  -234.1676311 Eh     change       -0.3997737E-03 Eh
   gradient norm :     0.0464788 Eh/α   predicted    -0.1081162E-02 ( 170.44%)
   displ. norm   :     0.4936524 α      lambda       -0.1710741E-02
   maximum displ.:     0.1475283 α      in ANC's #55, #82, #60, ...

........................................................................
.............................. CYCLE   30 ..............................
........................................................................

 iter      E             dE          RMSdq      gap      omega  full diag
   1   -238.6094417 -0.238609E+03  0.140E-01    2.81       0.0  T
   2   -238.6094820 -0.402409E-04  0.781E-02    2.81       1.0  T
   3   -238.6094858 -0.377419E-05  0.995E-03    2.81       1.0  T
   4   -238.6094967 -0.109278E-04  0.394E-03    2.81       2.0  T
   5   -238.6094975 -0.841283E-06  0.142E-03    2.81       5.6  T
   6   -238.6094975 -0.196044E-07  0.371E-04    2.81      21.3  T
   7   -238.6094976 -0.180594E-07  0.156E-04    2.81      50.8  T
     SCC iter.                  ...        0 min,  0.520 sec
     gradient                   ...        0 min,  0.293 sec
 * total energy  :  -234.1688345 Eh     change       -0.1203394E-02 Eh
   gradient norm :     0.0133043 Eh/α   predicted    -0.1063824E-02 ( -11.60%)
   displ. norm   :     0.6316388 α      lambda       -0.1548324E-02
   maximum displ.:     0.1930782 α      in ANC's #55, #60, #53, ...

........................................................................
.............................. CYCLE   31 ..............................
........................................................................

 iter      E             dE          RMSdq      gap      omega  full diag
   1   -238.5912678 -0.238591E+03  0.166E-01    2.82       0.0  T
   2   -238.5913257 -0.579575E-04  0.924E-02    2.82       1.0  T
   3   -238.5913328 -0.701072E-05  0.114E-02    2.82       1.0  T
   4   -238.5913480 -0.152286E-04  0.457E-03    2.82       1.7  T
   5   -238.5913490 -0.100095E-05  0.141E-03    2.82       5.6  T
   6   -238.5913490 -0.174866E-07  0.462E-04    2.82      17.1  T
   7   -238.5913490 -0.293952E-07  0.196E-04    2.82      40.3  T
     SCC iter.                  ...        0 min,  0.519 sec
     gradient                   ...        0 min,  0.295 sec
 * total energy  :  -234.1691647 Eh     change       -0.3301752E-03 Eh
   gradient norm :     0.0367849 Eh/α   predicted    -0.1083029E-02 ( 228.02%)
   displ. norm   :     0.4657541 α      lambda       -0.1888426E-02
   maximum displ.:     0.1519282 α      in ANC's #55, #60, #53, ...

........................................................................
.............................. CYCLE   32 ..............................
........................................................................

 iter      E             dE          RMSdq      gap      omega  full diag
   1   -238.5930293 -0.238593E+03  0.132E-01    2.79       0.0  T
   2   -238.5930644 -0.351118E-04  0.736E-02    2.80       1.0  T
   3   -238.5930557  0.867596E-05  0.130E-02    2.80       1.0  T
   4   -238.5930790 -0.232231E-04  0.334E-03    2.80       2.4  T
   5   -238.5930794 -0.443053E-06  0.112E-03    2.80       7.1  T
   6   -238.5930794 -0.465550E-08  0.399E-04    2.80      19.8  T
   7   -238.5930794 -0.219498E-07  0.156E-04    2.80      50.6  T
     SCC iter.                  ...        0 min,  0.520 sec
     gradient                   ...        0 min,  0.293 sec
 * total energy  :  -234.1703106 Eh     change       -0.1145995E-02 Eh
   gradient norm :     0.0240809 Eh/α   predicted    -0.1149040E-02 (   0.27%)
   displ. norm   :     0.5180781 α      lambda       -0.1811696E-02
   maximum displ.:     0.1679447 α      in ANC's #55, #53, #60, ...

........................................................................
.............................. CYCLE   33 ..............................
........................................................................

 iter      E             dE          RMSdq      gap      omega  full diag
   1   -238.5939834 -0.238594E+03  0.195E-01    2.72       0.0  T
   2   -238.5940704 -0.870021E-04  0.109E-01    2.73       1.0  T
   3   -238.5940392  0.311470E-04  0.220E-02    2.73       1.0  T
   4   -238.5941069 -0.676737E-04  0.486E-03    2.73       1.6  T
   5   -238.5941080 -0.111603E-05  0.167E-03    2.73       4.7  T
   6   -238.5941080  0.174165E-08  0.579E-04    2.73      13.6  T
   7   -238.5941081 -0.391714E-07  0.243E-04    2.73      32.5  T
     SCC iter.                  ...        0 min,  0.520 sec
     gradient                   ...        0 min,  0.294 sec
 * total energy  :  -234.1697258 Eh     change        0.5848384E-03 Eh
   gradient norm :     0.0580678 Eh/α   predicted    -0.1148985E-02 (-296.46%)
   displ. norm   :     0.2930741 α      lambda       -0.3301105E-02
   maximum displ.:     0.0833174 α      in ANC's #55, #132, #142, ...

........................................................................
.............................. CYCLE   34 ..............................
........................................................................

 iter      E             dE          RMSdq      gap      omega  full diag
   1   -238.6042458 -0.238604E+03  0.126E-01    2.81       0.0  T
   2   -238.6042827 -0.369080E-04  0.702E-02    2.80       1.0  T
   3   -238.6042837 -0.973646E-06  0.977E-03    2.80       1.0  T
   4   -238.6042949 -0.112379E-04  0.348E-03    2.80       2.3  T
   5   -238.6042959 -0.101716E-05  0.124E-03    2.80       6.4  T
   6   -238.6042959 -0.139692E-07  0.307E-04    2.80      25.7  T
   7   -238.6042959 -0.915625E-08  0.155E-04    2.80      50.9  T
     SCC iter.                  ...        0 min,  0.520 sec
     gradient                   ...        0 min,  0.294 sec
 * total energy  :  -234.1714495 Eh     change       -0.1723707E-02 Eh
   gradient norm :     0.0156233 Eh/α   predicted    -0.1792328E-02 (   3.98%)
   displ. norm   :     0.6667046 α      lambda       -0.1393729E-02
   maximum displ.:     0.2191147 α      in ANC's #55, #53, #60, ...

........................................................................
.............................. CYCLE   35 ..............................
........................................................................

 iter      E             dE          RMSdq      gap      omega  full diag
   1   -238.5799897 -0.238580E+03  0.177E-01    2.80       0.0  T
   2   -238.5800550 -0.652510E-04  0.987E-02    2.80       1.0  T
   3   -238.5800624 -0.742848E-05  0.123E-02    2.80       1.0  T
   4   -238.5800798 -0.173457E-04  0.459E-03    2.80       1.7  T
   5   -238.5800808 -0.982133E-06  0.162E-03    2.80       4.9  T
   6   -238.5800808 -0.222961E-07  0.583E-04    2.80      13.6  T
   7   -238.5800808 -0.486611E-07  0.201E-04    2.80      39.3  T
     SCC iter.                  ...        0 min,  0.571 sec
     gradient                   ...        0 min,  0.349 sec
 * total energy  :  -234.1716021 Eh     change       -0.1525400E-03 Eh
   gradient norm :     0.0453938 Eh/α   predicted    -0.1006620E-02 ( 559.91%)
   displ. norm   :     0.4038939 α      lambda       -0.2037910E-02
   maximum displ.:     0.1412832 α      in ANC's #55, #53, #46, ...

........................................................................
.............................. CYCLE   36 ..............................
........................................................................

 iter      E             dE          RMSdq      gap      omega  full diag
   1   -238.5997725 -0.238600E+03  0.109E-01    2.76       0.0  T
   2   -238.5998006 -0.280664E-04  0.608E-02    2.77       1.0  T
   3   -238.5997800  0.205850E-04  0.152E-02    2.77       1.0  T
   4   -238.5998117 -0.317031E-04  0.313E-03    2.77       2.5  T
   5   -238.5998123 -0.579038E-06  0.121E-03    2.77       6.6  T
   6   -238.5998123  0.626065E-08  0.420E-04    2.77      18.8  T
   7   -238.5998123 -0.214273E-07  0.167E-04    2.77      47.3  T
     SCC iter.                  ...        0 min,  0.547 sec
     gradient                   ...        0 min,  0.298 sec
 * total energy  :  -234.1724048 Eh     change       -0.8027532E-03 Eh
   gradient norm :     0.0354754 Eh/α   predicted    -0.1185180E-02 (  47.64%)
   displ. norm   :     0.4125704 α      lambda       -0.2460662E-02
   maximum displ.:     0.1230118 α      in ANC's #55, #53, #46, ...

........................................................................
.............................. CYCLE   37 ..............................
........................................................................

 iter      E             dE          RMSdq      gap      omega  full diag
   1   -238.6023744 -0.238602E+03  0.205E-01    2.84       0.0  T
   2   -238.6024649 -0.904740E-04  0.114E-01    2.83       1.0  T
   3   -238.6023981  0.668067E-04  0.276E-02    2.83       1.0  T
   4   -238.6025056 -0.107553E-03  0.487E-03    2.82       1.6  T
   5   -238.6025067 -0.107746E-05  0.176E-03    2.83       4.5  T
   6   -238.6025067  0.136173E-07  0.717E-04    2.83      11.0  T
   7   -238.6025068 -0.619820E-07  0.226E-04    2.83      35.0  T
     SCC iter.                  ...        0 min,  0.526 sec
     gradient                   ...        0 min,  0.296 sec
 * total energy  :  -234.1716427 Eh     change        0.7620681E-03 Eh
   gradient norm :     0.0594248 Eh/α   predicted    -0.1439756E-02 (-288.93%)
   displ. norm   :     0.2770009 α      lambda       -0.3825350E-02
   maximum displ.:     0.0876644 α      in ANC's #141, #149, #55, ...

........................................................................
.............................. CYCLE   38 ..............................
........................................................................

 iter      E             dE          RMSdq      gap      omega  full diag
   1   -238.6235573 -0.238624E+03  0.159E-01    2.79       0.0  T
   2   -238.6236164 -0.591410E-04  0.887E-02    2.80       1.0  T
   3   -238.6236260 -0.961419E-05  0.915E-03    2.80       1.0  T
   4   -238.6236339 -0.787680E-05  0.477E-03    2.80       1.7  T
   5   -238.6236361 -0.222061E-05  0.150E-03    2.80       5.3  T
   6   -238.6236362 -0.321391E-07  0.300E-04    2.80      26.3  T
   7   -238.6236362 -0.394849E-08  0.200E-04    2.80      39.5  T
     SCC iter.                  ...        0 min,  0.524 sec
     gradient                   ...        0 min,  0.294 sec
 * total energy  :  -234.1727730 Eh     change       -0.1130251E-02 Eh
   gradient norm :     0.0514798 Eh/α   predicted    -0.2059433E-02 (  82.21%)
   displ. norm   :     0.4330117 α      lambda       -0.4554611E-02
   maximum displ.:     0.1365503 α      in ANC's #79, #146, #144, ...

........................................................................
.............................. CYCLE   39 ..............................
........................................................................

 iter      E             dE          RMSdq      gap      omega  full diag
   1   -238.5838914 -0.238584E+03  0.280E-01    2.72       0.0  T
   2   -238.5840751 -0.183670E-03  0.156E-01    2.73       1.0  T
   3   -238.5839492  0.125939E-03  0.382E-02    2.74       1.0  T
   4   -238.5841504 -0.201196E-03  0.719E-03    2.74       1.1  T
   5   -238.5841533 -0.298757E-05  0.297E-03    2.74       2.7  T
   6   -238.5841531  0.209714E-06  0.176E-03    2.74       4.5  T
   7   -238.5841535 -0.395030E-06  0.359E-04    2.74      22.0  T
   8   -238.5841535 -0.118931E-08  0.132E-04    2.74      59.7  T
     SCC iter.                  ...        0 min,  0.592 sec
     gradient                   ...        0 min,  0.295 sec
 * total energy  :  -234.1697327 Eh     change        0.3040328E-02 Eh
   gradient norm :     0.1031062 Eh/α   predicted    -0.2704300E-02 (-188.95%)
   displ. norm   :     0.2803175 α      lambda       -0.8734302E-02
   maximum displ.:     0.0914616 α      in ANC's #134, #149, #129, ...

........................................................................
.............................. CYCLE   40 ..............................
........................................................................

 iter      E             dE          RMSdq      gap      omega  full diag
   1   -238.6044307 -0.238604E+03  0.205E-01    2.79       0.0  T
   2   -238.6045351 -0.104434E-03  0.114E-01    2.78       1.0  T
   3   -238.6045396 -0.443947E-05  0.155E-02    2.78       1.0  T
   4   -238.6045665 -0.269297E-04  0.621E-03    2.78       1.3  T
   5   -238.6045702 -0.367401E-05  0.201E-03    2.78       3.9  T
   6   -238.6045702 -0.464987E-07  0.400E-04    2.78      19.8  T
   7   -238.6045702 -0.386382E-08  0.272E-04    2.78      29.1  T
     SCC iter.                  ...        0 min,  0.520 sec
     gradient                   ...        0 min,  0.294 sec
 * total energy  :  -234.1733423 Eh     change       -0.3609625E-02 Eh
   gradient norm :     0.0480897 Eh/α   predicted    -0.4710308E-02 (  30.49%)
   displ. norm   :     0.4819067 α      lambda       -0.6052908E-02
   maximum displ.:     0.1946215 α      in ANC's #145, #141, #146, ...

........................................................................
.............................. CYCLE   41 ..............................
........................................................................

 iter      E             dE          RMSdq      gap      omega  full diag
   1   -238.6035381 -0.238604E+03  0.353E-01    2.82       0.0  T
   2   -238.6038214 -0.283344E-03  0.197E-01    2.81       1.0  T
   3   -238.6037169  0.104533E-03  0.395E-02    2.81       1.0  T
   4   -238.6039318 -0.214941E-03  0.906E-03    2.81       1.0  T
   5   -238.6039368 -0.502348E-05  0.332E-03    2.81       2.4  T
   6   -238.6039367  0.136893E-06  0.164E-03    2.81       4.8  T
   7   -238.6039370 -0.332655E-06  0.381E-04    2.81      20.8  T
   8   -238.6039370 -0.800441E-09  0.134E-04    2.81      59.2  T
     SCC iter.                  ...        0 min,  0.594 sec
     gradient                   ...        0 min,  0.294 sec
 * total energy  :  -234.1668827 Eh     change        0.6459557E-02 Eh
   gradient norm :     0.1390919 Eh/α   predicted    -0.3729296E-02 (-157.73%)
   displ. norm   :     0.2866352 α      lambda       -0.1305940E-01
   maximum displ.:     0.1366585 α      in ANC's #145, #135, #141, ...

........................................................................
.............................. CYCLE   42 ..............................
........................................................................

 iter      E             dE          RMSdq      gap      omega  full diag
   1   -238.6245436 -0.238625E+03  0.222E-01    2.80       0.0  T
   2   -238.6246654 -0.121817E-03  0.124E-01    2.80       1.0  T
   3   -238.6246358  0.295581E-04  0.231E-02    2.80       1.0  T
   4   -238.6247053 -0.694949E-04  0.681E-03    2.80       1.2  T
   5   -238.6247092 -0.382223E-05  0.226E-03    2.80       3.5  T
   6   -238.6247092 -0.156363E-07  0.620E-04    2.80      12.8  T
   7   -238.6247092 -0.296912E-07  0.328E-04    2.80      24.1  T
     SCC iter.                  ...        0 min,  0.522 sec
     gradient                   ...        0 min,  0.294 sec
 * total energy  :  -234.1738789 Eh     change       -0.6996136E-02 Eh
   gradient norm :     0.0328551 Eh/α   predicted    -0.7066190E-02 (   1.00%)
   displ. norm   :     0.5016594 α      lambda       -0.4698415E-02
   maximum displ.:     0.1620574 α      in ANC's #135, #146, #144, ...
 * RMSD in coord.:     0.6102360 α      energy gain  -0.1053182E-01 Eh

generating ANC from model Hessian ...
Using Lindh-Hessian (1995)
 Shifting diagonal of input Hessian by    1.0604695947823812E-002
 Lowest  eigenvalues of input Hessian
    0.010000    0.010552    0.010572    0.010582    0.010582    0.010584
    0.010591    0.010594    0.010596    0.010597    0.010598    0.010598
    0.010599    0.010600    0.010601    0.010601    0.010602    0.010602
 Highest eigenvalues
    2.583019    2.585823    2.592595    2.595011    2.601923    2.614872


........................................................................
.............................. CYCLE   43 ..............................
........................................................................

 iter      E             dE          RMSdq      gap      omega  full diag
   1   -238.5603983 -0.238560E+03  0.329E-01    2.65       0.0  T
   2   -238.5606550 -0.256681E-03  0.183E-01    2.66       1.0  T
   3   -238.5604631  0.191897E-03  0.463E-02    2.66       1.0  T
   4   -238.5607601 -0.296925E-03  0.893E-03    2.67       1.0  T
   5   -238.5607648 -0.477666E-05  0.384E-03    2.66       2.1  T
   6   -238.5607644  0.457050E-06  0.260E-03    2.66       3.0  T
   7   -238.5607652 -0.864146E-06  0.474E-04    2.66      16.7  T
   8   -238.5607652 -0.820506E-09  0.207E-04    2.66      38.3  T
     SCC iter.                  ...        0 min,  0.591 sec
     gradient                   ...        0 min,  0.298 sec
 * total energy  :  -234.1678970 Eh     change        0.5981850E-02 Eh
   gradient norm :     0.1384982 Eh/α   predicted     0.0000000E+00 (-100.00%)
   displ. norm   :     0.1388253 α      lambda       -0.1058437E-01
   maximum displ.:     0.0322494 α      in ANC's #455, #456, #371, ...

........................................................................
.............................. CYCLE   44 ..............................
........................................................................

 iter      E             dE          RMSdq      gap      omega  full diag
   1   -238.6143193 -0.238614E+03  0.801E-02    2.82       0.0  T
   2   -238.6143693 -0.499512E-04  0.467E-02    2.81       1.0  T
   3   -238.6142990  0.702509E-04  0.291E-02    2.81       1.0  T
   4   -238.6143895 -0.904846E-04  0.512E-03    2.81       1.5  T
   5   -238.6143915 -0.198918E-05  0.181E-03    2.81       4.4  T
   6   -238.6143915  0.162481E-07  0.756E-04    2.81      10.5  T
   7   -238.6143915 -0.549947E-07  0.325E-04    2.81      24.3  T
     SCC iter.                  ...        0 min,  0.533 sec
     gradient                   ...        0 min,  0.299 sec
 * total energy  :  -234.1730113 Eh     change       -0.5114313E-02 Eh
   gradient norm :     0.0332994 Eh/α   predicted    -0.5396981E-02 (   5.53%)
   displ. norm   :     0.1647414 α      lambda       -0.1392474E-02
   maximum displ.:     0.0443633 α      in ANC's #59, #101, #135, ...

........................................................................
.............................. CYCLE   45 ..............................
........................................................................

 iter      E             dE          RMSdq      gap      omega  full diag
   1   -238.6154463 -0.238615E+03  0.638E-02    2.80       0.0  T
   2   -238.6154533 -0.703022E-05  0.358E-02    2.80       1.0  T
   3   -238.6154409  0.124693E-04  0.108E-02    2.80       1.0  T
   4   -238.6154576 -0.167067E-04  0.137E-03    2.80       5.8  T
   5   -238.6154576 -0.343853E-07  0.382E-04    2.80      20.7  T
   6   -238.6154576 -0.180174E-08  0.185E-04    2.80      42.8  T
     SCC iter.                  ...        0 min,  0.523 sec
     gradient                   ...        0 min,  0.309 sec
 * total energy  :  -234.1740006 Eh     change       -0.9893059E-03 Eh
   gradient norm :     0.0205833 Eh/α   predicted    -0.7155542E-03 ( -27.67%)
   displ. norm   :     0.4410280 α      lambda       -0.3185583E-02
   maximum displ.:     0.1247860 α      in ANC's #59, #101, #56, ...

........................................................................
.............................. CYCLE   46 ..............................
........................................................................

 iter      E             dE          RMSdq      gap      omega  full diag
   1   -238.6020803 -0.238602E+03  0.195E-01    2.76       0.0  T
   2   -238.6021486 -0.683393E-04  0.109E-01    2.76       1.0  T
   3   -238.6020582  0.904417E-04  0.298E-02    2.76       1.0  T
   4   -238.6021860 -0.127812E-03  0.415E-03    2.76       1.9  T
   5   -238.6021863 -0.335857E-06  0.146E-03    2.76       5.4  T
   6   -238.6021863 -0.770314E-09  0.780E-04    2.76      10.1  T
   7   -238.6021864 -0.760487E-07  0.186E-04    2.76      42.6  T
     SCC iter.                  ...        0 min,  0.529 sec
     gradient                   ...        0 min,  0.301 sec
 * total energy  :  -234.1750614 Eh     change       -0.1060739E-02 Eh
   gradient norm :     0.0373625 Eh/α   predicted    -0.1902592E-02 (  79.36%)
   displ. norm   :     0.1964115 α      lambda       -0.1346499E-02
   maximum displ.:     0.0564653 α      in ANC's #59, #86, #56, ...

........................................................................
.............................. CYCLE   47 ..............................
........................................................................

 iter      E             dE          RMSdq      gap      omega  full diag
   1   -238.6125196 -0.238613E+03  0.601E-02    2.78       0.0  T
   2   -238.6125270 -0.740226E-05  0.339E-02    2.78       1.0  T
   3   -238.6125091  0.178929E-04  0.127E-02    2.78       1.0  T
   4   -238.6125316 -0.225534E-04  0.157E-03    2.78       5.0  T
   5   -238.6125317 -0.573646E-07  0.650E-04    2.78      12.2  T
   6   -238.6125317  0.223577E-08  0.257E-04    2.78      30.8  T
     SCC iter.                  ...        0 min,  0.468 sec
     gradient                   ...        0 min,  0.296 sec
 * total energy  :  -234.1759771 Eh     change       -0.9157647E-03 Eh
   gradient norm :     0.0114093 Eh/α   predicted    -0.6992390E-03 ( -23.64%)
   displ. norm   :     0.3562524 α      lambda       -0.9550046E-03
   maximum displ.:     0.1095867 α      in ANC's #59, #56, #86, ...

........................................................................
.............................. CYCLE   48 ..............................
........................................................................

 iter      E             dE          RMSdq      gap      omega  full diag
   1   -238.6125098 -0.238613E+03  0.103E-01    2.79       0.0  T
   2   -238.6125292 -0.193675E-04  0.579E-02    2.79       1.0  T
   3   -238.6125061  0.230567E-04  0.154E-02    2.79       1.0  T
   4   -238.6125396 -0.335151E-04  0.248E-03    2.79       3.2  T
   5   -238.6125397 -0.747807E-07  0.554E-04    2.79      14.3  T
   6   -238.6125397 -0.151272E-07  0.282E-04    2.79      28.1  T
     SCC iter.                  ...        0 min,  0.450 sec
     gradient                   ...        0 min,  0.296 sec
 * total energy  :  -234.1765245 Eh     change       -0.5473647E-03 Eh
   gradient norm :     0.0107472 Eh/α   predicted    -0.5381077E-03 (  -1.69%)
   displ. norm   :     0.5191834 α      lambda       -0.1162803E-02
   maximum displ.:     0.1685542 α      in ANC's #59, #56, #86, ...

........................................................................
.............................. CYCLE   49 ..............................
........................................................................

 iter      E             dE          RMSdq      gap      omega  full diag
   1   -238.6112894 -0.238611E+03  0.125E-01    2.77       0.0  T
   2   -238.6113172 -0.277487E-04  0.703E-02    2.77       1.0  T
   3   -238.6113001  0.171283E-04  0.150E-02    2.77       1.0  T
   4   -238.6113306 -0.305384E-04  0.313E-03    2.77       2.5  T
   5   -238.6113307 -0.932404E-07  0.700E-04    2.77      11.3  T
   6   -238.6113307 -0.334483E-07  0.320E-04    2.77      24.7  T
     SCC iter.                  ...        0 min,  0.446 sec
     gradient                   ...        0 min,  0.299 sec
 * total energy  :  -234.1770577 Eh     change       -0.5331715E-03 Eh
   gradient norm :     0.0239774 Eh/α   predicted    -0.7381304E-03 (  38.44%)
   displ. norm   :     0.3329139 α      lambda       -0.7371345E-03
   maximum displ.:     0.1157566 α      in ANC's #59, #56, #86, ...

........................................................................
.............................. CYCLE   50 ..............................
........................................................................

 iter      E             dE          RMSdq      gap      omega  full diag
   1   -238.6118885 -0.238612E+03  0.861E-02    2.77       0.0  T
   2   -238.6119014 -0.129262E-04  0.480E-02    2.77       1.0  T
   3   -238.6118961  0.534363E-05  0.904E-03    2.77       1.0  T
   4   -238.6119074 -0.113026E-04  0.205E-03    2.77       3.9  T
   5   -238.6119075 -0.784834E-07  0.450E-04    2.77      17.6  T
   6   -238.6119075 -0.773517E-08  0.191E-04    2.77      41.4  T
     SCC iter.                  ...        0 min,  0.472 sec
     gradient                   ...        0 min,  0.301 sec
 * total energy  :  -234.1777037 Eh     change       -0.6459818E-03 Eh
   gradient norm :     0.0129610 Eh/α   predicted    -0.4094168E-03 ( -36.62%)
   displ. norm   :     0.6562599 α      lambda       -0.1617942E-02
   maximum displ.:     0.2253678 α      in ANC's #59, #56, #86, ...

........................................................................
.............................. CYCLE   51 ..............................
........................................................................

 iter      E             dE          RMSdq      gap      omega  full diag
   1   -238.6137690 -0.238614E+03  0.184E-01    2.77       0.0  T
   2   -238.6138278 -0.587948E-04  0.103E-01    2.77       1.0  T
   3   -238.6137871  0.407191E-04  0.221E-02    2.77       1.0  T
   4   -238.6138560 -0.689533E-04  0.435E-03    2.77       1.8  T
   5   -238.6138565 -0.411697E-06  0.119E-03    2.77       6.6  T
   6   -238.6138565 -0.199894E-07  0.515E-04    2.77      15.3  T
   7   -238.6138565 -0.329281E-07  0.177E-04    2.77      44.6  T
     SCC iter.                  ...        0 min,  0.523 sec
     gradient                   ...        0 min,  0.295 sec
 * total energy  :  -234.1785920 Eh     change       -0.8883528E-03 Eh
   gradient norm :     0.0302813 Eh/α   predicted    -0.1157389E-02 (  30.28%)
   displ. norm   :     0.5890580 α      lambda       -0.1699268E-02
   maximum displ.:     0.2098340 α      in ANC's #59, #56, #49, ...

........................................................................
.............................. CYCLE   52 ..............................
........................................................................

 iter      E             dE          RMSdq      gap      omega  full diag
   1   -238.6110949 -0.238611E+03  0.167E-01    2.74       0.0  T
   2   -238.6111442 -0.493215E-04  0.930E-02    2.75       1.0  T
   3   -238.6111337  0.105493E-04  0.152E-02    2.75       1.0  T
   4   -238.6111649 -0.312001E-04  0.404E-03    2.75       2.0  T
   5   -238.6111654 -0.564120E-06  0.124E-03    2.75       6.4  T
   6   -238.6111654 -0.106020E-07  0.388E-04    2.75      20.4  T
   7   -238.6111655 -0.170869E-07  0.187E-04    2.75      42.4  T
     SCC iter.                  ...        0 min,  0.526 sec
     gradient                   ...        0 min,  0.295 sec
 * total energy  :  -234.1794575 Eh     change       -0.8654571E-03 Eh
   gradient norm :     0.0379440 Eh/α   predicted    -0.1144453E-02 (  32.24%)
   displ. norm   :     0.5260578 α      lambda       -0.1721547E-02
   maximum displ.:     0.1849151 α      in ANC's #59, #56, #49, ...

........................................................................
.............................. CYCLE   53 ..............................
........................................................................

 iter      E             dE          RMSdq      gap      omega  full diag
   1   -238.6078784 -0.238608E+03  0.126E-01    2.74       0.0  T
   2   -238.6079087 -0.302862E-04  0.701E-02    2.74       1.0  T
   3   -238.6078980  0.107618E-04  0.131E-02    2.74       1.0  T
   4   -238.6079211 -0.231704E-04  0.323E-03    2.74       2.4  T
   5   -238.6079215 -0.395861E-06  0.121E-03    2.74       6.5  T
   6   -238.6079215 -0.451655E-08  0.391E-04    2.74      20.2  T
   7   -238.6079216 -0.199909E-07  0.156E-04    2.74      50.6  T
     SCC iter.                  ...        0 min,  0.524 sec
     gradient                   ...        0 min,  0.296 sec
 * total energy  :  -234.1802791 Eh     change       -0.8216501E-03 Eh
   gradient norm :     0.0365790 Eh/α   predicted    -0.1098987E-02 (  33.75%)
   displ. norm   :     0.4908712 α      lambda       -0.2490968E-02
   maximum displ.:     0.1672973 α      in ANC's #59, #56, #128, ...

........................................................................
.............................. CYCLE   54 ..............................
........................................................................

 iter      E             dE          RMSdq      gap      omega  full diag
   1   -238.6141489 -0.238614E+03  0.158E-01    2.77       0.0  T
   2   -238.6141979 -0.490326E-04  0.882E-02    2.76       1.0  T
   3   -238.6141711  0.268803E-04  0.186E-02    2.76       1.0  T
   4   -238.6142196 -0.485361E-04  0.355E-03    2.76       2.2  T
   5   -238.6142200 -0.408395E-06  0.131E-03    2.76       6.0  T
   6   -238.6142200 -0.514856E-08  0.462E-04    2.76      17.1  T
   7   -238.6142200 -0.252084E-07  0.188E-04    2.76      41.9  T
     SCC iter.                  ...        0 min,  0.523 sec
     gradient                   ...        0 min,  0.295 sec
 * total energy  :  -234.1809647 Eh     change       -0.6855572E-03 Eh
   gradient norm :     0.0361973 Eh/α   predicted    -0.1545593E-02 ( 125.45%)
   displ. norm   :     0.5181697 α      lambda       -0.2215603E-02
   maximum displ.:     0.1752293 α      in ANC's #59, #56, #49, ...

........................................................................
.............................. CYCLE   55 ..............................
........................................................................

 iter      E             dE          RMSdq      gap      omega  full diag
   1   -238.6104946 -0.238610E+03  0.172E-01    2.72       0.0  T
   2   -238.6105465 -0.519084E-04  0.958E-02    2.73       1.0  T
   3   -238.6105395  0.698956E-05  0.146E-02    2.73       1.0  T
   4   -238.6105684 -0.288705E-04  0.374E-03    2.73       2.1  T
   5   -238.6105689 -0.479356E-06  0.114E-03    2.73       6.9  T
   6   -238.6105689 -0.809521E-08  0.411E-04    2.73      19.3  T
   7   -238.6105689 -0.188949E-07  0.166E-04    2.73      47.8  T
     SCC iter.                  ...        0 min,  0.526 sec
     gradient                   ...        0 min,  0.297 sec
 * total energy  :  -234.1820740 Eh     change       -0.1109320E-02 Eh
   gradient norm :     0.0249908 Eh/α   predicted    -0.1405245E-02 (  26.68%)
   displ. norm   :     0.5849159 α      lambda       -0.2182544E-02
   maximum displ.:     0.1858353 α      in ANC's #56, #59, #49, ...

........................................................................
.............................. CYCLE   56 ..............................
........................................................................

 iter      E             dE          RMSdq      gap      omega  full diag
   1   -238.6049424 -0.238605E+03  0.186E-01    2.73       0.0  T
   2   -238.6050034 -0.610505E-04  0.104E-01    2.73       1.0  T
   3   -238.6049809  0.225145E-04  0.187E-02    2.73       1.0  T
   4   -238.6050292 -0.482596E-04  0.453E-03    2.73       1.7  T
   5   -238.6050300 -0.798970E-06  0.151E-03    2.73       5.2  T
   6   -238.6050300 -0.549005E-08  0.507E-04    2.73      15.6  T
   7   -238.6050300 -0.315121E-07  0.202E-04    2.73      39.1  T
     SCC iter.                  ...        0 min,  0.527 sec
     gradient                   ...        0 min,  0.297 sec
 * total energy  :  -234.1827626 Eh     change       -0.6885996E-03 Eh
   gradient norm :     0.0454692 Eh/α   predicted    -0.1464633E-02 ( 112.70%)
   displ. norm   :     0.5281904 α      lambda       -0.1953893E-02
   maximum displ.:     0.1744674 α      in ANC's #59, #56, #49, ...

........................................................................
.............................. CYCLE   57 ..............................
........................................................................

 iter      E             dE          RMSdq      gap      omega  full diag
   1   -238.6015696 -0.238602E+03  0.128E-01    2.68       0.0  T
   2   -238.6016020 -0.324437E-04  0.711E-02    2.69       1.0  T
   3   -238.6015823  0.197243E-04  0.158E-02    2.69       1.0  T
   4   -238.6016162 -0.338737E-04  0.313E-03    2.69       2.5  T
   5   -238.6016164 -0.275890E-06  0.127E-03    2.69       6.2  T
   6   -238.6016164 -0.545444E-08  0.482E-04    2.69      16.4  T
[...]
   displ. norm   :     0.4983532 α      lambda       -0.4156104E-03
   maximum displ.:     0.1715711 α      in ANC's #20, #25, #22, ...

........................................................................
.............................. CYCLE  471 ..............................
........................................................................

 iter      E             dE          RMSdq      gap      omega  full diag
   1   -238.8164050 -0.238816E+03  0.741E-02    2.86       0.0  T
   2   -238.8164157 -0.106919E-04  0.417E-02    2.86       1.0  T
   3   -238.8163879  0.278171E-04  0.154E-02    2.86       1.0  T
   4   -238.8164227 -0.348094E-04  0.207E-03    2.86       3.8  T
   5   -238.8164227  0.957630E-08  0.124E-03    2.86       6.4  T
   6   -238.8164228 -0.124162E-06  0.432E-04    2.86      18.3  T
   7   -238.8164228 -0.154407E-07  0.153E-04    2.86      51.7  T
     SCC iter.                  ...        0 min,  0.533 sec
     gradient                   ...        0 min,  0.321 sec
 * total energy  :  -234.3731219 Eh     change       -0.2619167E-03 Eh
   gradient norm :     0.0068880 Eh/α   predicted    -0.2594169E-03 (  -0.95%)
   displ. norm   :     0.5335626 α      lambda       -0.3059890E-03
   maximum displ.:     0.1861253 α      in ANC's #20, #25, #22, ...

........................................................................
.............................. CYCLE  472 ..............................
........................................................................

 iter      E             dE          RMSdq      gap      omega  full diag
   1   -238.8129238 -0.238813E+03  0.878E-02    2.86       0.0  T
   2   -238.8129379 -0.141880E-04  0.493E-02    2.86       1.0  T
   3   -238.8129063  0.316674E-04  0.164E-02    2.86       1.0  T
   4   -238.8129467 -0.403941E-04  0.232E-03    2.86       3.4  T
   5   -238.8129467 -0.264728E-07  0.140E-03    2.86       5.6  T
   6   -238.8129468 -0.137956E-06  0.503E-04    2.86      15.7  T
   7   -238.8129469 -0.234585E-07  0.165E-04    2.86      47.8  T
     SCC iter.                  ...        0 min,  0.530 sec
     gradient                   ...        0 min,  0.320 sec
 * total energy  :  -234.3732504 Eh     change       -0.1285594E-03 Eh
   gradient norm :     0.0122779 Eh/α   predicted    -0.1965516E-03 (  52.89%)
   displ. norm   :     0.4025186 α      lambda       -0.4056118E-03
   maximum displ.:     0.1581047 α      in ANC's #25, #20, #22, ...

........................................................................
.............................. CYCLE  473 ..............................
........................................................................

 iter      E             dE          RMSdq      gap      omega  full diag
   1   -238.8195783 -0.238820E+03  0.621E-02    2.86       0.0  T
   2   -238.8195873 -0.906337E-05  0.349E-02    2.86       1.0  T
   3   -238.8195622  0.251309E-04  0.143E-02    2.86       1.0  T
   4   -238.8195932 -0.310133E-04  0.188E-03    2.86       4.2  T
   5   -238.8195933 -0.915962E-07  0.109E-03    2.86       7.3  T
   6   -238.8195934 -0.629701E-07  0.501E-04    2.86      15.8  T
   7   -238.8195934 -0.216547E-07  0.140E-04    2.86      56.7  T
     SCC iter.                  ...        0 min,  0.532 sec
     gradient                   ...        0 min,  0.320 sec
 * total energy  :  -234.3734852 Eh     change       -0.2347250E-03 Eh
   gradient norm :     0.0103458 Eh/α   predicted    -0.2356694E-03 (   0.40%)
   displ. norm   :     0.5215373 α      lambda       -0.4094943E-03
   maximum displ.:     0.1904839 α      in ANC's #25, #20, #22, ...

........................................................................
.............................. CYCLE  474 ..............................
........................................................................

 iter      E             dE          RMSdq      gap      omega  full diag
   1   -238.8181471 -0.238818E+03  0.834E-02    2.86       0.0  T
   2   -238.8181605 -0.133675E-04  0.468E-02    2.86       1.0  T
   3   -238.8181327  0.277985E-04  0.148E-02    2.86       1.0  T
   4   -238.8181683 -0.356530E-04  0.229E-03    2.86       3.5  T
   5   -238.8181684 -0.818008E-07  0.137E-03    2.86       5.8  T
   6   -238.8181686 -0.132568E-06  0.497E-04    2.86      15.9  T
   7   -238.8181686 -0.201437E-07  0.166E-04    2.86      47.6  T
     SCC iter.                  ...        0 min,  0.540 sec
     gradient                   ...        0 min,  0.318 sec
 * total energy  :  -234.3736379 Eh     change       -0.1527043E-03 Eh
   gradient norm :     0.0123843 Eh/α   predicted    -0.2604429E-03 (  70.55%)
   displ. norm   :     0.4328194 α      lambda       -0.3863997E-03
   maximum displ.:     0.1667413 α      in ANC's #25, #20, #22, ...

........................................................................
.............................. CYCLE  475 ..............................
........................................................................

 iter      E             dE          RMSdq      gap      omega  full diag
   1   -238.8189826 -0.238819E+03  0.614E-02    2.86       0.0  T
   2   -238.8189906 -0.808619E-05  0.344E-02    2.86       1.0  T
   3   -238.8189742  0.164779E-04  0.114E-02    2.86       1.0  T
   4   -238.8189955 -0.212974E-04  0.176E-03    2.87       4.5  T
   5   -238.8189955 -0.296571E-07  0.111E-03    2.86       7.1  T
   6   -238.8189956 -0.102459E-06  0.334E-04    2.86      23.7  T
   7   -238.8189956 -0.781802E-08  0.140E-04    2.86      56.6  T
     SCC iter.                  ...        0 min,  0.537 sec
     gradient                   ...        0 min,  0.320 sec
 * total energy  :  -234.3738988 Eh     change       -0.2609438E-03 Eh
   gradient norm :     0.0086095 Eh/α   predicted    -0.2293977E-03 ( -12.09%)
   displ. norm   :     0.5124403 α      lambda       -0.4640261E-03
   maximum displ.:     0.2077207 α      in ANC's #25, #20, #19, ...

........................................................................
.............................. CYCLE  476 ..............................
........................................................................

 iter      E             dE          RMSdq      gap      omega  full diag
   1   -238.8234144 -0.238823E+03  0.896E-02    2.87       0.0  T
   2   -238.8234319 -0.174855E-04  0.502E-02    2.87       1.0  T
   3   -238.8233922  0.396808E-04  0.177E-02    2.87       1.0  T
   4   -238.8234420 -0.498033E-04  0.255E-03    2.87       3.1  T
   5   -238.8234422 -0.202364E-06  0.145E-03    2.87       5.4  T
   6   -238.8234423 -0.106471E-06  0.680E-04    2.87      11.6  T
   7   -238.8234423 -0.392685E-07  0.202E-04    2.87      39.2  T
     SCC iter.                  ...        0 min,  0.548 sec
     gradient                   ...        0 min,  0.319 sec
 * total energy  :  -234.3739669 Eh     change       -0.6812028E-04 Eh
   gradient norm :     0.0185344 Eh/α   predicted    -0.2929417E-03 ( 330.04%)
   displ. norm   :     0.4382481 α      lambda       -0.6124941E-03
   maximum displ.:     0.1561898 α      in ANC's #20, #25, #22, ...

........................................................................
.............................. CYCLE  477 ..............................
........................................................................

 iter      E             dE          RMSdq      gap      omega  full diag
   1   -238.8168576 -0.238817E+03  0.741E-02    2.86       0.0  T
   2   -238.8168699 -0.123019E-04  0.419E-02    2.86       1.0  T
   3   -238.8168261  0.438163E-04  0.187E-02    2.86       1.0  T
   4   -238.8168790 -0.529260E-04  0.245E-03    2.86       3.2  T
   5   -238.8168792 -0.179985E-06  0.141E-03    2.86       5.6  T
   6   -238.8168793 -0.100606E-06  0.648E-04    2.86      12.2  T
   7   -238.8168793 -0.350138E-07  0.185E-04    2.86      42.7  T
     SCC iter.                  ...        0 min,  0.531 sec
     gradient                   ...        0 min,  0.321 sec
 * total energy  :  -234.3742035 Eh     change       -0.2365946E-03 Eh
   gradient norm :     0.0204072 Eh/α   predicted    -0.3650707E-03 (  54.30%)
   displ. norm   :     0.3095137 α      lambda       -0.7022560E-03
   maximum displ.:     0.1114061 α      in ANC's #25, #20, #19, ...

........................................................................
.............................. CYCLE  478 ..............................
........................................................................

 iter      E             dE          RMSdq      gap      omega  full diag
   1   -238.8277871 -0.238828E+03  0.926E-02    2.86       0.0  T
   2   -238.8278039 -0.168660E-04  0.523E-02    2.86       1.0  T
   3   -238.8277315  0.724741E-04  0.240E-02    2.86       1.0  T
   4   -238.8278184 -0.869420E-04  0.254E-03    2.86       3.1  T
   5   -238.8278186 -0.228290E-06  0.145E-03    2.86       5.5  T
   6   -238.8278187 -0.110947E-06  0.702E-04    2.86      11.3  T
   7   -238.8278188 -0.383438E-07  0.182E-04    2.86      43.4  T
     SCC iter.                  ...        0 min,  0.532 sec
     gradient                   ...        0 min,  0.320 sec
 * total energy  :  -234.3741665 Eh     change        0.3701300E-04 Eh
   gradient norm :     0.0248176 Eh/α   predicted    -0.3847658E-03 (*******%)
   displ. norm   :     0.3441454 α      lambda       -0.8592309E-03
   maximum displ.:     0.1176994 α      in ANC's #20, #25, #22, ...

........................................................................
.............................. CYCLE  479 ..............................
........................................................................

 iter      E             dE          RMSdq      gap      omega  full diag
   1   -238.8133737 -0.238813E+03  0.903E-02    2.86       0.0  T
   2   -238.8133923 -0.186147E-04  0.507E-02    2.86       1.0  T
   3   -238.8133626  0.297773E-04  0.161E-02    2.86       1.0  T
   4   -238.8134015 -0.389276E-04  0.272E-03    2.86       2.9  T
   5   -238.8134018 -0.363878E-06  0.120E-03    2.86       6.6  T
   6   -238.8134019 -0.214134E-07  0.659E-04    2.86      12.0  T
   7   -238.8134019 -0.464089E-07  0.162E-04    2.86      48.8  T
     SCC iter.                  ...        0 min,  0.530 sec
     gradient                   ...        0 min,  0.319 sec
 * total energy  :  -234.3744439 Eh     change       -0.2774109E-03 Eh
   gradient norm :     0.0199205 Eh/α   predicted    -0.4804997E-03 (  73.21%)
   displ. norm   :     0.3212252 α      lambda       -0.1004663E-02
   maximum displ.:     0.1016398 α      in ANC's #25, #79, #20, ...

........................................................................
.............................. CYCLE  480 ..............................
........................................................................

 iter      E             dE          RMSdq      gap      omega  full diag
   1   -238.8336572 -0.238834E+03  0.115E-01    2.87       0.0  T
   2   -238.8336938 -0.366310E-04  0.642E-02    2.87       1.0  T
   3   -238.8336754  0.184004E-04  0.150E-02    2.87       1.0  T
   4   -238.8337045 -0.290965E-04  0.400E-03    2.87       2.0  T
   5   -238.8337059 -0.138895E-05  0.160E-03    2.87       4.9  T
   6   -238.8337059  0.412053E-07  0.947E-04    2.87       8.3  T
   7   -238.8337060 -0.109164E-06  0.230E-04    2.87      34.4  T
     SCC iter.                  ...        0 min,  0.530 sec
     gradient                   ...        0 min,  0.319 sec
 * total energy  :  -234.3739243 Eh     change        0.5196505E-03 Eh
   gradient norm :     0.0390928 Eh/α   predicted    -0.5541690E-03 (-206.64%)
   displ. norm   :     0.2284999 α      lambda       -0.1787717E-02
   maximum displ.:     0.0680665 α      in ANC's #150, #131, #20, ...

........................................................................
.............................. CYCLE  481 ..............................
........................................................................

 iter      E             dE          RMSdq      gap      omega  full diag
   1   -238.8154650 -0.238815E+03  0.109E-01    2.86       0.0  T
   2   -238.8154945 -0.295215E-04  0.609E-02    2.87       1.0  T
   3   -238.8154633  0.311681E-04  0.168E-02    2.86       1.0  T
   4   -238.8155064 -0.430613E-04  0.347E-03    2.86       2.3  T
   5   -238.8155072 -0.859001E-06  0.146E-03    2.86       5.4  T
   6   -238.8155073 -0.185328E-07  0.902E-04    2.86       8.8  T
   7   -238.8155074 -0.909085E-07  0.194E-04    2.86      40.8  T
     SCC iter.                  ...        0 min,  0.529 sec
     gradient                   ...        0 min,  0.318 sec
 * total energy  :  -234.3746061 Eh     change       -0.6817856E-03 Eh
   gradient norm :     0.0242636 Eh/α   predicted    -0.9405309E-03 (  37.95%)
   displ. norm   :     0.2813967 α      lambda       -0.1312223E-02
   maximum displ.:     0.0954160 α      in ANC's #79, #55, #20, ...

........................................................................
.............................. CYCLE  482 ..............................
........................................................................

 iter      E             dE          RMSdq      gap      omega  full diag
   1   -238.8276153 -0.238828E+03  0.132E-01    2.86       0.0  T
   2   -238.8276613 -0.459273E-04  0.742E-02    2.86       1.0  T
   3   -238.8275419  0.119324E-03  0.319E-02    2.86       1.0  T
   4   -238.8276883 -0.146334E-03  0.424E-03    2.86       1.9  T
   5   -238.8276892 -0.959981E-06  0.190E-03    2.86       4.2  T
   6   -238.8276892  0.141157E-07  0.130E-03    2.86       6.1  T
   7   -238.8276894 -0.177021E-06  0.270E-04    2.86      29.3  T
   8   -238.8276894 -0.736890E-09  0.164E-04    2.86      48.2  T
     SCC iter.                  ...        0 min,  0.603 sec
     gradient                   ...        0 min,  0.319 sec
 * total energy  :  -234.3740213 Eh     change        0.5847081E-03 Eh
   gradient norm :     0.0384706 Eh/α   predicted    -0.7080619E-03 (-221.10%)
   displ. norm   :     0.2192179 α      lambda       -0.1890249E-02
   maximum displ.:     0.0583784 α      in ANC's #55, #20, #25, ...

........................................................................
.............................. CYCLE  483 ..............................
........................................................................

 iter      E             dE          RMSdq      gap      omega  full diag
   1   -238.8211821 -0.238821E+03  0.105E-01    2.87       0.0  T
   2   -238.8212079 -0.257338E-04  0.593E-02    2.86       1.0  T
   3   -238.8211465  0.613389E-04  0.228E-02    2.87       1.0  T
   4   -238.8212224 -0.758973E-04  0.303E-03    2.87       2.6  T
   5   -238.8212229 -0.438283E-06  0.134E-03    2.87       5.9  T
   6   -238.8212229  0.428292E-08  0.851E-04    2.87       9.3  T
   7   -238.8212230 -0.818578E-07  0.198E-04    2.87      39.9  T
     SCC iter.                  ...        0 min,  0.528 sec
     gradient                   ...        0 min,  0.318 sec
 * total energy  :  -234.3748782 Eh     change       -0.8568539E-03 Eh
   gradient norm :     0.0180804 Eh/α   predicted    -0.9905448E-03 (  15.60%)
   displ. norm   :     0.3301471 α      lambda       -0.1123552E-02
   maximum displ.:     0.1144809 α      in ANC's #79, #25, #20, ...

........................................................................
.............................. CYCLE  484 ..............................
........................................................................

 iter      E             dE          RMSdq      gap      omega  full diag
   1   -238.8160106 -0.238816E+03  0.135E-01    2.87       0.0  T
   2   -238.8160703 -0.596230E-04  0.754E-02    2.87       1.0  T
   3   -238.8160305  0.398092E-04  0.203E-02    2.87       1.0  T
   4   -238.8160850 -0.545853E-04  0.590E-03    2.87       1.3  T
   5   -238.8160885 -0.345601E-05  0.199E-03    2.87       4.0  T
   6   -238.8160884  0.912107E-07  0.128E-03    2.87       6.2  T
   7   -238.8160886 -0.198619E-06  0.315E-04    2.87      25.1  T
   8   -238.8160886 -0.772388E-09  0.176E-04    2.87      44.8  T
     SCC iter.                  ...        0 min,  0.604 sec
     gradient                   ...        0 min,  0.320 sec
 * total energy  :  -234.3736783 Eh     change        0.1199947E-02 Eh
   gradient norm :     0.0582357 Eh/α   predicted    -0.6230122E-03 (-151.92%)
   displ. norm   :     0.1855555 α      lambda       -0.3000157E-02
   maximum displ.:     0.0746375 α      in ANC's #79, #135, #136, ...

........................................................................
.............................. CYCLE  485 ..............................
........................................................................

 iter      E             dE          RMSdq      gap      omega  full diag
   1   -238.8228879 -0.238823E+03  0.109E-01    2.87       0.0  T
   2   -238.8229229 -0.350013E-04  0.606E-02    2.87       1.0  T
   3   -238.8229100  0.129016E-04  0.125E-02    2.86       1.0  T
   4   -238.8229311 -0.210383E-04  0.441E-03    2.87       1.8  T
   5   -238.8229332 -0.213322E-05  0.138E-03    2.87       5.7  T
   6   -238.8229332  0.281043E-07  0.873E-04    2.87       9.1  T
   7   -238.8229333 -0.887987E-07  0.230E-04    2.87      34.4  T
     SCC iter.                  ...        0 min,  0.532 sec
     gradient                   ...        0 min,  0.321 sec
 * total energy  :  -234.3751211 Eh     change       -0.1442873E-02 Eh
   gradient norm :     0.0107708 Eh/α   predicted    -0.1551727E-02 (   7.54%)
   displ. norm   :     0.4789380 α      lambda       -0.5720744E-03
   maximum displ.:     0.1805746 α      in ANC's #20, #25, #19, ...

........................................................................
.............................. CYCLE  486 ..............................
........................................................................

 iter      E             dE          RMSdq      gap      omega  full diag
   1   -238.8132516 -0.238813E+03  0.952E-02    2.87       0.0  T
   2   -238.8132758 -0.241788E-04  0.533E-02    2.87       1.0  T
   3   -238.8132417  0.340708E-04  0.171E-02    2.87       1.0  T
   4   -238.8132862 -0.444515E-04  0.334E-03    2.87       2.4  T
   5   -238.8132869 -0.719499E-06  0.148E-03    2.87       5.4  T
   6   -238.8132869 -0.915105E-08  0.904E-04    2.87       8.7  T
   7   -238.8132870 -0.777540E-07  0.220E-04    2.87      35.9  T
     SCC iter.                  ...        0 min,  0.535 sec
     gradient                   ...        0 min,  0.322 sec
 * total energy  :  -234.3749698 Eh     change        0.1513683E-03 Eh
   gradient norm :     0.0269486 Eh/α   predicted    -0.3516509E-03 (-332.31%)
   displ. norm   :     0.2706822 α      lambda       -0.8662590E-03
   maximum displ.:     0.1028949 α      in ANC's #25, #20, #19, ...

........................................................................
.............................. CYCLE  487 ..............................
........................................................................

 iter      E             dE          RMSdq      gap      omega  full diag
   1   -238.8160808 -0.238816E+03  0.621E-02    2.87       0.0  T
   2   -238.8160909 -0.100780E-04  0.349E-02    2.87       1.0  T
   3   -238.8160641  0.267998E-04  0.145E-02    2.87       1.0  T
   4   -238.8160965 -0.324066E-04  0.213E-03    2.87       3.7  T
   5   -238.8160968 -0.302401E-06  0.107E-03    2.87       7.4  T
   6   -238.8160968 -0.335717E-07  0.608E-04    2.87      13.0  T
   7   -238.8160968 -0.278712E-07  0.152E-04    2.87      51.9  T
     SCC iter.                  ...        0 min,  0.532 sec
     gradient                   ...        0 min,  0.319 sec
 * total energy  :  -234.3754481 Eh     change       -0.4783725E-03 Eh
   gradient norm :     0.0056908 Eh/α   predicted    -0.4648674E-03 (  -2.82%)
