      -----------------------------------------------------------      
     |                   =====================                   |     
     |                           x T B                           |     
     |                   =====================                   |     
     |                         S. Grimme                         |     
     |          Mulliken Center for Theoretical Chemistry        |     
     |                    University of Bonn                     |     
      -----------------------------------------------------------      

   * xtb version 6.6.0 (conda-forge) compiled by 'runner@Mac-1676020848589.local' on 2023-02-10

   xtb is free software: you can redistribute it and/or modify it under
   the terms of the GNU Lesser General Public License as published by
   the Free Software Foundation, either version 3 of the License, or
   (at your option) any later version.
   
   xtb is distributed in the hope that it will be useful,
   but WITHOUT ANY WARRANTY; without even the implied warranty of
   MERCHANTABILITY or FITNESS FOR A PARTICULAR PURPOSE.  See the
   GNU Lesser General Public License for more details.
   
   Cite this work as:
   * C. Bannwarth, E. Caldeweyher, S. Ehlert, A. Hansen, P. Pracht,
     J. Seibert, S. Spicher, S. Grimme, WIREs Comput. Mol. Sci., 2020, 11,
     e01493. DOI: 10.1002/wcms.1493
   
   for GFN2-xTB:
   * C. Bannwarth, S. Ehlert and S. Grimme., J. Chem. Theory Comput., 2019,
     15, 1652-1671. DOI: 10.1021/acs.jctc.8b01176
   for GFN1-xTB:
   * S. Grimme, C. Bannwarth, P. Shushkov, J. Chem. Theory Comput., 2017,
     13, 1989-2009. DOI: 10.1021/acs.jctc.7b00118
   for GFN0-xTB:
   * P. Pracht, E. Caldeweyher, S. Ehlert, S. Grimme, ChemRxiv, 2019, preprint.
     DOI: 10.26434/chemrxiv.8326202.v1
   for GFN-FF:
   * S. Spicher and S. Grimme, Angew. Chem. Int. Ed., 2020, 59, 15665-15673.
     DOI: 10.1002/anie.202004239
   
   for ALPB and GBSA implicit solvation:
   * S. Ehlert, M. Stahn, S. Spicher, S. Grimme, J. Chem. Theory Comput.,
     2021, 17, 4250-4261. DOI: 10.1021/acs.jctc.1c00471
   
   for DFT-D4:
   * E. Caldeweyher, C. Bannwarth and S. Grimme, J. Chem. Phys., 2017,
     147, 034112. DOI: 10.1063/1.4993215
   * E. Caldeweyher, S. Ehlert, A. Hansen, H. Neugebauer, S. Spicher,
     C. Bannwarth and S. Grimme, J. Chem. Phys., 2019, 150, 154122.
     DOI: 10.1063/1.5090222
   * E. Caldeweyher, J.-M. Mewes, S. Ehlert and S. Grimme, Phys. Chem. Chem. Phys.
     2020, 22, 8499-8512. DOI: 10.1039/D0CP00502A
   
   for sTDA-xTB:
   * S. Grimme and C. Bannwarth, J. Chem. Phys., 2016, 145, 054103.
     DOI: 10.1063/1.4959605
   
   in the mass-spec context:
   * V. Asgeirsson, C. Bauer and S. Grimme, Chem. Sci., 2017, 8, 4879.
     DOI: 10.1039/c7sc00601b
   * J. Koopman and S. Grimme, ACS Omega 2019, 4, 12, 15120-15133.
     DOI: 10.1021/acsomega.9b02011
   
   for metadynamics refer to:
   * S. Grimme, J. Chem. Theory Comput., 2019, 155, 2847-2862
     DOI: 10.1021/acs.jctc.9b00143
   
   for SPH calculations refer to:
   * S. Spicher and S. Grimme, J. Chem. Theory Comput., 2021, 17, 1701-1714
     DOI: 10.1021/acs.jctc.0c01306
   
   with help from (in alphabetical order)
   P. Atkinson, C. Bannwarth, F. Bohle, G. Brandenburg, E. Caldeweyher
   M. Checinski, S. Dohm, S. Ehlert, S. Ehrlich, I. Gerasimov, C. Hölzer
   A. Katbashev, J. Koopman, C. Lavigne, S. Lehtola, F. März, M. Müller,
   F. Musil, H. Neugebauer, J. Pisarek, C. Plett, P. Pracht, F. Pultar,
   J. Seibert, P. Shushkov, S. Spicher, M. Stahn, M. Steiner, T. Strunk,
   J. Stückrath, T. Rose, and J. Unsleber
   
 * started run on 2025/02/18 at 01:48:32.086     

           -------------------------------------------------
          |                Calculation Setup                |
           -------------------------------------------------

          program call               : xtb coord --gfn1 --md
          coordinate file            : coord
          omp threads                :                     1

   ID    Z sym.   atoms
    1    6 c      1, 3, 5, 6, 8, 10, 12, 14, 16, 18, 21, 25, 28, 32, 43-46,
                  48, 50
    2    1 h      2, 4, 7, 9, 11, 13, 15, 17, 19, 22, 23, 26, 27, 29-31,
                  33-35, 47, 49, 51-53
    3   26 fe     20
    4    7 n      24
    5   15 p      36
    6    9 f      37-42
constraining bond 1 2 to    1.0796800 Å, actual value:    1.0814703 Å
constraining bond 1 3 to    1.4234200 Å, actual value:    1.4151669 Å
constraining bond 1 6 to    1.4276800 Å, actual value:    1.4160541 Å
constraining bond 1 20 to    2.0606600 Å, actual value:    2.0710712 Å
constraining bond 3 4 to    1.0808600 Å, actual value:    1.0823505 Å
constraining bond 3 5 to    1.4363100 Å, actual value:    1.4230052 Å
constraining bond 3 20 to    2.0445800 Å, actual value:    2.0576997 Å
constraining bond 5 8 to    1.4389200 Å, actual value:    1.4246554 Å
constraining bond 5 20 to    2.0164300 Å, actual value:    2.0360868 Å
constraining bond 5 21 to    1.4855700 Å, actual value:    1.4969256 Å
constraining bond 6 7 to    1.0797100 Å, actual value:    1.0813965 Å
constraining bond 6 8 to    1.4232300 Å, actual value:    1.4147198 Å
constraining bond 6 20 to    2.0540400 Å, actual value:    2.0621356 Å
constraining bond 8 9 to    1.0777400 Å, actual value:    1.0806773 Å
constraining bond 8 20 to    2.0241200 Å, actual value:    2.0362285 Å
constraining bond 10 11 to    1.0801100 Å, actual value:    1.0823034 Å
constraining bond 10 12 to    1.4277900 Å, actual value:    1.4185376 Å
constraining bond 10 16 to    1.4282100 Å, actual value:    1.4184372 Å
constraining bond 10 20 to    2.0479600 Å, actual value:    2.0560525 Å
constraining bond 12 13 to    1.0802400 Å, actual value:    1.0824107 Å
constraining bond 12 14 to    1.4271500 Å, actual value:    1.4178045 Å
constraining bond 12 20 to    2.0526100 Å, actual value:    2.0583232 Å
constraining bond 14 15 to    1.0793900 Å, actual value:    1.0824484 Å
constraining bond 14 18 to    1.4239100 Å, actual value:    1.4157566 Å
constraining bond 14 20 to    2.0578700 Å, actual value:    2.0624830 Å
constraining bond 16 17 to    1.0801100 Å, actual value:    1.0822444 Å
constraining bond 16 18 to    1.4262300 Å, actual value:    1.4176311 Å
constraining bond 16 20 to    2.0485800 Å, actual value:    2.0568729 Å
constraining bond 18 19 to    1.0787500 Å, actual value:    1.0820909 Å
constraining bond 18 20 to    2.0569300 Å, actual value:    2.0619198 Å
constraining bond 21 22 to    1.0924000 Å, actual value:    1.0928102 Å
constraining bond 21 23 to    1.0833800 Å, actual value:    1.0876209 Å
constraining bond 21 24 to    1.5437000 Å, actual value:    1.5164543 Å
constraining bond 24 25 to    1.5412200 Å, actual value:    1.5131374 Å
constraining bond 24 28 to    1.4906900 Å, actual value:    1.4818067 Å
constraining bond 24 32 to    1.5016800 Å, actual value:    1.4875364 Å
constraining bond 25 26 to    1.0897200 Å, actual value:    1.0914635 Å
constraining bond 25 27 to    1.0878900 Å, actual value:    1.0904528 Å
constraining bond 25 43 to    1.5030600 Å, actual value:    1.5047946 Å
constraining bond 28 29 to    1.0892600 Å, actual value:    1.0883000 Å
constraining bond 28 30 to    1.0912200 Å, actual value:    1.0890126 Å
constraining bond 28 31 to    1.0901700 Å, actual value:    1.0889667 Å
constraining bond 32 33 to    1.0908600 Å, actual value:    1.0885338 Å
constraining bond 32 34 to    1.0887000 Å, actual value:    1.0881176 Å
constraining bond 32 35 to    1.0893800 Å, actual value:    1.0882951 Å
constraining bond 36 37 to    1.6455900 Å, actual value:    1.6698646 Å
constraining bond 36 38 to    1.6545300 Å, actual value:    1.6851160 Å
constraining bond 36 39 to    1.5909500 Å, actual value:    1.6197834 Å
constraining bond 36 40 to    1.5932900 Å, actual value:    1.6221416 Å
constraining bond 36 41 to    1.6027000 Å, actual value:    1.6256122 Å
constraining bond 36 42 to    1.6538600 Å, actual value:    1.6798465 Å
constraining bond 43 44 to    1.4003900 Å, actual value:    1.3946863 Å
constraining bond 43 45 to    1.3993100 Å, actual value:    1.3944552 Å
constraining bond 44 46 to    1.3919500 Å, actual value:    1.3873144 Å
constraining bond 44 47 to    1.0841700 Å, actual value:    1.0836856 Å
constraining bond 45 48 to    1.3918200 Å, actual value:    1.3881691 Å
constraining bond 45 49 to    1.0861800 Å, actual value:    1.0853342 Å
constraining bond 46 50 to    1.3936400 Å, actual value:    1.3883456 Å
constraining bond 46 51 to    1.0845700 Å, actual value:    1.0838804 Å
constraining bond 48 50 to    1.3933800 Å, actual value:    1.3882336 Å
constraining bond 48 52 to    1.0846600 Å, actual value:    1.0841952 Å
constraining bond 50 53 to    1.0848000 Å, actual value:    1.0839953 Å

molecular fragmentation (1/2 indicates fragments):
11111111111111111111111111111111111222222211111111111
# atoms in fragment 1/2:    46     7
 fragment masses (1/2) :      334.26      144.96
CMA distance (Bohr)    :   7.563
constraining FC (au)   :  0.0200
########################################################################
[WARNING] Please study the warnings concerning your input carefully
-2- set_rdsetbl: Set-blocks will become obsolete in xtb 6.0 and newer
-1- prog_main_parseArguments: The use of '--gfn1' is discouraged, please use '--gfn 1' next time
########################################################################

           -------------------------------------------------
          |                 G F N 1 - x T B                 |
           -------------------------------------------------

        Reference                      10.1021/acs.jctc.7b00118
      * Hamiltonian:
        H0-scaling (s, p, d)           1.850000    2.250000    2.000000
        zeta-weighting                 0.000000
      * Dispersion:
        s8                             2.400000
        a1                             0.630000
        a2                             5.000000
        s9                             0.000000
      * Repulsion:
        kExp                           1.500000
        rExp                           1.000000
      * Coulomb:
        alpha                          2.000000
        third order                    atomic
        anisotropic                    false
      * Halogen bond correction:
        rad-scale                      1.300000
        damping                        0.440000


          ...................................................
          :                      SETUP                      :
          :.................................................:
          :  # basis functions                 176          :
          :  # atomic orbitals                 174          :
          :  # shells                          108          :
          :  # electrons                       164          :
          :  # halogen bonds                     0          :
          :  max. iterations                   250          :
          :  Hamiltonian                  GFN1-xTB          :
          :  restarted?                      false          :
          :  GBSA solvation                  false          :
          :  PC potential                    false          :
          :  electronic temp.          300.0000000     K    :
          :  accuracy                    1.0000000          :
          :  -> integral cutoff          0.2500000E+02      :
          :  -> integral neglect         0.1000000E-07      :
          :  -> SCF convergence          0.1000000E-05 Eh   :
          :  -> wf. convergence          0.2000000E-04 e    :
          :  Broyden damping             0.4000000          :
          ...................................................

 iter      E             dE          RMSdq      gap      omega  full diag
   1    -90.7616025 -0.907616E+02  0.106E+01    1.42       0.0  T
   2    -40.6180955  0.501435E+02  0.134E+01    0.18       1.0  T
   3    -86.0010952 -0.453830E+02  0.742E+00    1.06       1.0  T
   4    -50.9642846  0.350368E+02  0.113E+01    0.05       1.0  T
   5    -92.6582336 -0.416939E+02  0.444E+00    0.56       1.0  T
   6    -95.2589964 -0.260076E+01  0.246E+00    2.59       1.0  T
   7    -95.6228078 -0.363811E+00  0.179E+00    2.31       1.0  T
   8    -95.5421283  0.806795E-01  0.166E+00    2.38       1.0  T
   9    -96.0195422 -0.477414E+00  0.328E-01    1.84       1.0  T
  10    -96.0107064  0.883574E-02  0.327E-01    1.88       1.0  T
  11    -96.0229081 -0.122016E-01  0.225E-01    1.84       1.0  T
  12    -96.0276309 -0.472285E-02  0.173E-01    1.83       1.0  T
  13    -96.0312540 -0.362307E-02  0.105E-01    1.81       1.0  T
  14    -96.0335678 -0.231387E-02  0.242E-02    1.79       1.0  T
  15    -96.0336413 -0.734246E-04  0.112E-02    1.78       1.2  T
  16    -96.0336671 -0.258399E-04  0.383E-03    1.78       3.6  T
  17    -96.0336698 -0.269614E-05  0.123E-03    1.78      11.2  T
  18    -96.0336701 -0.271972E-06  0.447E-04    1.78      30.7  T
  19    -96.0336701 -0.404032E-07  0.612E-05    1.78     224.5  T
  20    -96.0336701 -0.501515E-09  0.207E-05    1.78     663.8  T

   *** convergence criteria satisfied after 20 iterations ***

         #    Occupation            Energy/Eh            Energy/eV
      -------------------------------------------------------------
         1        2.0000           -0.8757708             -23.8309
       ...           ...                  ...                  ...
        76        2.0000           -0.4389246             -11.9437
        77        2.0000           -0.4364270             -11.8758
        78        2.0000           -0.4271963             -11.6246
        79        2.0000           -0.4263549             -11.6017
        80        2.0000           -0.3839051             -10.4466
        81        2.0000           -0.3832141             -10.4278
        82        2.0000           -0.3714267             -10.1070 (HOMO)
        83                         -0.3059676              -8.3258 (LUMO)
        84                         -0.3048766              -8.2961
        85                         -0.2939936              -8.0000
        86                         -0.2886762              -7.8553
        87                         -0.2187223              -5.9517
       ...                                ...                  ...
       174                          3.9162887             106.5676
      -------------------------------------------------------------
                  HL-Gap            0.0654590 Eh            1.7812 eV
             Fermi-level           -0.3386971 Eh           -9.2164 eV

 SCC (total)                   0 d,  0 h,  0 min,  0.303 sec
 SCC setup                      ...        0 min,  0.001 sec (  0.253%)
 Dispersion                     ...        0 min,  0.000 sec (  0.139%)
 classical contributions        ...        0 min,  0.000 sec (  0.067%)
 integral evaluation            ...        0 min,  0.024 sec (  7.808%)
 iterations                     ...        0 min,  0.213 sec ( 70.294%)
 molecular gradient             ...        0 min,  0.064 sec ( 21.063%)
 printout                       ...        0 min,  0.001 sec (  0.371%)

         :::::::::::::::::::::::::::::::::::::::::::::::::::::
         ::                     SUMMARY                     ::
         :::::::::::::::::::::::::::::::::::::::::::::::::::::
         :: total energy             -95.092667009383 Eh    ::
         :: gradient norm              0.000632089688 Eh/a0 ::
         :: HOMO-LUMO gap              1.781230250808 eV    ::
         ::.................................................::
         :: SCC energy               -96.033670120948 Eh    ::
         :: -> electrostatic           0.115668317153 Eh    ::
         :: repulsion energy           0.980829038441 Eh    ::
         :: dispersion energy         -0.040449365690 Eh    ::
         :: halogen bond corr.         0.000000000000 Eh    ::
         :: add. restraining           0.000623438814 Eh    ::
         :: total charge               0.000000000000 e     ::
         :::::::::::::::::::::::::::::::::::::::::::::::::::::

           -------------------------------------------------
          |                Property Printout                |
           -------------------------------------------------

    * Orbital Energies and Occupations

         #    Occupation            Energy/Eh            Energy/eV
      -------------------------------------------------------------
         1        2.0000           -0.8757708             -23.8309
       ...           ...                  ...                  ...
        70        2.0000           -0.4820835             -13.1182
        71        2.0000           -0.4802536             -13.0684
        72        2.0000           -0.4796857             -13.0529
        73        2.0000           -0.4793616             -13.0441
        74        2.0000           -0.4660192             -12.6810
        75        2.0000           -0.4645111             -12.6400
        76        2.0000           -0.4389246             -11.9437
        77        2.0000           -0.4364270             -11.8758
        78        2.0000           -0.4271963             -11.6246
        79        2.0000           -0.4263549             -11.6017
        80        2.0000           -0.3839051             -10.4466
        81        2.0000           -0.3832141             -10.4278
        82        2.0000           -0.3714267             -10.1070 (HOMO)
        83                         -0.3059676              -8.3258 (LUMO)
        84                         -0.3048766              -8.2961
        85                         -0.2939936              -8.0000
        86                         -0.2886762              -7.8553
        87                         -0.2187223              -5.9517
        88                         -0.2075624              -5.6481
        89                         -0.1932491              -5.2586
        90                         -0.1913673              -5.2074
        91                         -0.1892151              -5.1488
        92                         -0.1853232              -5.0429
        93                         -0.1767749              -4.8103
       ...                                ...                  ...
       174                          3.9162887             106.5676
      -------------------------------------------------------------
                  HL-Gap            0.0654590 Eh            1.7812 eV
             Fermi-level           -0.3386971 Eh           -9.2164 eV

  Mulliken/CM5 charges         n(s)   n(p)   n(d)
     1c    -0.03489 -0.12633   1.055  2.980  0.000
     2h     0.04014  0.09537   0.960  0.000  0.000
     3c    -0.05720 -0.14856   1.059  2.998  0.000
     4h     0.03141  0.08731   0.969  0.000  0.000
     5c    -0.03418 -0.08588   1.081  2.953  0.000
     6c    -0.03454 -0.12688   1.056  2.978  0.000
     7h     0.04373  0.09902   0.956  0.000  0.000
     8c    -0.04006 -0.13397   1.063  2.977  0.000
     9h     0.06022  0.11924   0.940  0.000  0.000
    10c    -0.03340 -0.12616   1.057  2.977  0.000
    11h     0.03924  0.09433   0.961  0.000  0.000
    12c    -0.03654 -0.12907   1.058  2.978  0.000
    13h     0.03757  0.09267   0.962  0.000  0.000
    14c    -0.02226 -0.11447   1.062  2.960  0.000
    15h     0.05908  0.11571   0.941  0.000  0.000
    16c    -0.03107 -0.12372   1.059  2.973  0.000
    17h     0.04340  0.09853   0.957  0.000  0.000
    18c    -0.01223 -0.10431   1.063  2.949  0.000
    19h     0.07345  0.13064   0.927  0.000  0.000
    20fe   -0.02075  0.35971   0.062  0.851  7.108
    21c     0.04658 -0.01000   1.041  2.913  0.000
    22h     0.04542  0.11265   0.955  0.000  0.000
    23h     0.10999  0.18878   0.890  0.000  0.000
    24n    -0.05704 -0.39386   1.497  3.561  0.000
    25c     0.04538 -0.00806   1.041  2.914  0.000
    26h     0.04902  0.11870   0.951  0.000  0.000
    27h     0.10281  0.17783   0.897  0.000  0.000
    28c     0.02486 -0.07152   1.007  2.969  0.000
    29h     0.05477  0.11923   0.945  0.000  0.000
    30h     0.05705  0.11978   0.943  0.000  0.000
    31h     0.06058  0.12527   0.939  0.000  0.000
    32c     0.01934 -0.07821   1.013  2.968  0.000
    33h     0.05382  0.11644   0.946  0.000  0.000
    34h     0.05070  0.11559   0.949  0.000  0.000
    35h     0.10309  0.17160   0.897  0.000  0.000
    36p     0.55185  0.46167   1.373  1.666  1.410
    37f    -0.26664 -0.26057   1.795  5.472  0.000
    38f    -0.28009 -0.27762   1.799  5.481  0.000
    39f    -0.20505 -0.19007   1.779  5.426  0.000
    40f    -0.20946 -0.19468   1.780  5.430  0.000
    41f    -0.21254 -0.19896   1.781  5.432  0.000
    42f    -0.27580 -0.27358   1.797  5.479  0.000
    43c    -0.01823 -0.03111   1.083  2.936  0.000
    44c    -0.02926 -0.08365   1.070  2.959  0.000
    45c    -0.04332 -0.09765   1.062  2.982  0.000
    46c    -0.01711 -0.07299   1.061  2.956  0.000
    47h     0.06437  0.12460   0.936  0.000  0.000
    48c    -0.02208 -0.07794   1.058  2.964  0.000
    49h     0.02688  0.08434   0.973  0.000  0.000
    50c    -0.02192 -0.07775   1.061  2.961  0.000
    51h     0.04489  0.10082   0.955  0.000  0.000
    52h     0.03669  0.09255   0.963  0.000  0.000
    53h     0.03932  0.09518   0.961  0.000  0.000

Wiberg/Mayer (AO) data.
largest (>0.10) Wiberg bond orders for each atom

 ---------------------------------------------------------------------------
     #   Z sym  total        # sym  WBO       # sym  WBO       # sym  WBO
 ---------------------------------------------------------------------------
     1   6 c    3.993 --     3 c    1.298     6 c    1.296     2 h    0.962
                            20 fe   0.346
     2   1 h    0.999 --     1 c    0.962
     3   6 c    3.991 --     1 c    1.298     5 c    1.265     4 h    0.962
                            20 fe   0.349
     4   1 h    0.999 --     3 c    0.962
     5   6 c    3.976 --     3 c    1.265     8 c    1.259    21 c    1.004
                            20 fe   0.338
     6   6 c    3.993 --     8 c    1.297     1 c    1.296     7 h    0.961
                            20 fe   0.349
     7   1 h    0.999 --     6 c    0.961
     8   6 c    3.990 --     6 c    1.297     5 c    1.259     9 h    0.952
                            20 fe   0.357
     9   1 h    1.008 --     8 c    0.952
    10   6 c    3.993 --    12 c    1.283    16 c    1.283    11 h    0.960
                            20 fe   0.386
    11   1 h    0.999 --    10 c    0.960
    12   6 c    3.993 --    14 c    1.283    10 c    1.283    13 h    0.960
                            20 fe   0.387
    13   1 h    0.999 --    12 c    0.960
    14   6 c    3.992 --    18 c    1.287    12 c    1.283    15 h    0.955
                            20 fe   0.383
    15   1 h    1.000 --    14 c    0.955
    16   6 c    3.993 --    10 c    1.283    18 c    1.282    17 h    0.959
                            20 fe   0.390
    17   1 h    0.998 --    16 c    0.959
    18   6 c    3.990 --    14 c    1.287    16 c    1.282    19 h    0.952
                            20 fe   0.385
    19   1 h    1.000 --    18 c    0.952
    20  26 fe   3.832 --    16 c    0.390    12 c    0.387    10 c    0.386
                            18 c    0.385    14 c    0.383     8 c    0.357
                             6 c    0.349     3 c    0.349     1 c    0.346
                             5 c    0.338
    21   6 c    3.897 --     5 c    1.004    22 h    0.976    23 h    0.945
                            24 n    0.871
    22   1 h    1.001 --    21 c    0.976
    23   1 h    1.015 --    21 c    0.945
    24   7 n    3.644 --    28 c    0.941    32 c    0.926    25 c    0.883
                            21 c    0.871
    25   6 c    3.905 --    43 c    1.007    26 h    0.971    27 h    0.957
                            24 n    0.883
    26   1 h    1.015 --    25 c    0.971
    27   1 h    1.013 --    25 c    0.957
    28   6 c    3.941 --    30 h    0.985    29 h    0.982    31 h    0.981
                            24 n    0.941
    29   1 h    1.011 --    28 c    0.982
    30   1 h    1.002 --    28 c    0.985
    31   1 h    1.011 --    28 c    0.981
    32   6 c    3.917 --    33 h    0.986    34 h    0.982    35 h    0.968
                            24 n    0.926
    33   1 h    1.001 --    32 c    0.986
    34   1 h    1.010 --    32 c    0.982
    35   1 h    1.009 --    32 c    0.968
    36  15 p    5.682 --    39 f    1.011    40 f    1.005    41 f    0.999
                            37 f    0.907    42 f    0.884    38 f    0.876
    37   9 f    1.182 --    36 p    0.907
    38   9 f    1.170 --    36 p    0.876
    39   9 f    1.253 --    36 p    1.011
    40   9 f    1.247 --    36 p    1.005
    41   9 f    1.245 --    36 p    0.999
    42   9 f    1.173 --    36 p    0.884
    43   6 c    3.986 --    45 c    1.412    44 c    1.411    25 c    1.007
                            50 c    0.109
    44   6 c    3.990 --    46 c    1.443    43 c    1.411    47 h    0.965
                            48 c    0.111
    45   6 c    3.995 --    48 c    1.442    43 c    1.412    49 h    0.971
                            46 c    0.111
    46   6 c    3.994 --    44 c    1.443    50 c    1.440    51 h    0.973
                            45 c    0.111
    47   1 h    1.010 --    44 c    0.965
    48   6 c    3.995 --    45 c    1.442    50 c    1.440    52 h    0.973
                            44 c    0.111
    49   1 h    1.002 --    45 c    0.971
    50   6 c    3.995 --    48 c    1.440    46 c    1.440    53 h    0.973
                            43 c    0.109
    51   1 h    1.001 --    46 c    0.973
    52   1 h    1.002 --    48 c    0.973
    53   1 h    1.002 --    50 c    0.973
 ---------------------------------------------------------------------------

Topologies differ in total number of bonds
Writing topology from bond orders to xtbtopo.mol

 dipole moment from electron density (au)
     X       Y       Z   
   1.4152   5.7590  -1.5357  total (Debye):   15.571


           -------------------------------------------------
          | TOTAL ENERGY              -95.092667009383 Eh   |
          | GRADIENT NORM               0.000632089688 Eh/α |
          | HOMO-LUMO GAP               1.781230250808 eV   |
           -------------------------------------------------
           ------------------------------------------------- 
          |                  Meta Dynamics                  |
           ------------------------------------------------- 
 init_shake: metal bond            1          20 not constrained
 init_shake: metal bond            3          20 not constrained
 init_shake: metal bond            5          20 not constrained
 init_shake: metal bond            6          20 not constrained
 init_shake: metal bond            8          20 not constrained
 init_shake: metal bond           10          20 not constrained
 init_shake: metal bond           12          20 not constrained
 init_shake: metal bond           14          20 not constrained
 init_shake: metal bond           16          20 not constrained
 init_shake: metal bond           18          20 not constrained
 trajectories on xtb.trj or xtb.trj.<n>

 MD time /ps        :    1.00
 dt /fs             :    5.00
 SCC accuracy       :    2.00
 temperature /K     :  300.00
 max steps          :   200
 block length (av.) :  1000
 dumpstep(trj) /fs  :  100.00    20
 dumpstep(coords)/fs:10000.00  2000
 H atoms mass (amu) :     2
 # deg. of freedom  :   107
 SHAKE on. # bonds  :          52  all: T
 Berendsen THERMOSTAT on
 --- metadynamics parameter ---
 kpush  :    0.159
 alpha  :    0.500
 update :     100
         time (ps)    <Epot>      Ekin   <T>   T     Etot
      0    0.00      0.00000   0.1199    0.    0.   -94.97041
est. speed in wall clock h for 100 ps :  1.01
 average properties 
 Epot               :  -94.535332637635733     
 Epot (accurate SCC):  -95.006468784812881     
 Ekin               :   7.0074752513464414E-002
 Etot               :  -94.465257885122270     
 T                  :   413.60518822307381     
 normal exit of md()

------------------------------------------------------------------------
 * finished run on 2025/02/18 at 01:49:08.851     
------------------------------------------------------------------------
 total:
 * wall-time:     0 d,  0 h,  0 min, 36.765 sec
 *  cpu-time:     0 d,  0 h,  0 min, 36.708 sec
 * ratio c/w:     0.998 speedup
 SCF:
 * wall-time:     0 d,  0 h,  0 min,  0.303 sec
 *  cpu-time:     0 d,  0 h,  0 min,  0.303 sec
 * ratio c/w:     0.999 speedup
 MD:
 * wall-time:     0 d,  0 h,  0 min, 36.427 sec
 *  cpu-time:     0 d,  0 h,  0 min, 36.371 sec
 * ratio c/w:     0.998 speedup

