53
 energy: -95.090282188311 gnorm: 0.000632160006 xtb: 6.6.0 (conda-forge)
c           -2.50267491103914        3.11180312750956        0.55574163860647
h           -3.16912929175921        3.96069341724460        0.62503463996053
c           -1.83711258879801        2.67956949186267       -0.61596563637087
h           -1.90908621687527        3.13363838558730       -1.59582464829813
c           -0.96346337401893        1.61565337487100       -0.25573953124189
c           -2.04332557661549        2.32508441378302        1.63984523973344
h           -2.30318724107735        2.46779513706891        2.67980854241368
c           -1.09912644028534        1.39492066670595        1.14515845561836
h           -0.54340417372342        0.68133889616279        1.73662859946494
c           -4.90091398461614        0.76843615790394        0.02258273714069
h           -5.73621737207320        1.45208297513009        0.10180199595889
c           -4.23709732971788        0.40231890367039       -1.17639772977403
h           -4.47762763755247        0.76213759476231       -2.16851084265633
c           -3.29532184173418       -0.61012768788244       -0.86306080850970
h           -2.67926742740197       -1.15179421805247       -1.56929632800593
c           -4.36595437190014       -0.01787786776024        1.07495724567593
h           -4.72110486140166       -0.03132320460369        2.09718031628193
c           -3.37396192551042       -0.86927692196331        0.52655200852506
h           -2.82507634124892       -1.63905599122147        1.05294089514773
fe          -2.88083092455768        1.10641392722422        0.20254582436500
c           -0.07825319318255        0.87367058337672       -1.20792145286704
h           -0.39402875792876        1.04919839006256       -2.23928443223397
h           -0.09599965174400       -0.19546609105937       -1.00904753487574
n            1.38033229543393        1.28271042295613       -1.13829293016622
c            1.90983171978717        1.01902173076894        0.25443214828594
h            1.38658851932334        1.71058749013586        0.91718835088772
h            1.62534174794730       -0.00383031310714        0.50328192509842
c            1.50694372897188        2.71895317059150       -1.48023884392143
h            2.55676236192074        3.00378132548999       -1.44632078179685
h            1.11150994967036        2.87891641342516       -2.48223293707715
h            0.93349919136945        3.30111447419580       -0.76044874432113
c            2.11462620297013        0.46050337232399       -2.13706819554654
h            1.69241567863852        0.64774650377976       -3.12275776589227
h            3.16646398700991        0.73881719549883       -2.12370853635599
h            1.99898641549246       -0.58940918083517       -1.87496700186345
p            0.43440486421700       -2.80445943193358       -0.00244298692069
f           -0.17463094892605       -2.16081551583577       -1.41780340652106
f            1.89019823737527       -2.03163090016743       -0.35318080532829
f            0.93093136866875       -4.11693781535187       -0.81149153862720
f            1.06823030138355       -3.35251435935284        1.38652934030240
f           -1.01364483131352       -3.46693047749438        0.32451077429742
f           -0.04157119639602       -1.39761636489089        0.78249204013561
c            3.40013233775663        1.19616011298141        0.36412481022665
c            4.24456057825124        0.09711214728631        0.20861301959105
c            3.94744942116024        2.44137146627936        0.67136687355854
c            5.61790910467413        0.24991551534775        0.33192524754469
h            3.82387374201550       -0.88104597966071        0.00711002911990
c            5.32231456379120        2.58989402100809        0.79261032015326
h            3.29790974492557        3.29482406470003        0.83770069730500
c            6.15915748437679        1.49632652707163        0.61655309305386
h            6.26660472891099       -0.60995564676024        0.21104503519800
h            5.73870366761820        3.56187090564546        1.03211000324301
h            7.23236541691444        1.61424033815252        0.71333512425438
53
 energy: -94.996238411599 gnorm: 0.119570016369 xtb: 6.6.0 (conda-forge)
c           -2.78782066401475        3.04319208919900        0.49280511655342
h           -3.63561458514479        3.70248258434839        0.61992394440927
c           -2.00806190330283        2.67609872125390       -0.62965459101702
h           -2.15112159484881        3.02778815314168       -1.64322793207179
c           -0.97125151908460        1.82025936512898       -0.16327863261170
c           -2.25317995414652        2.41658840639100        1.64464533991485
h           -2.53498273929664        2.59016838528913        2.67414778661743
c           -1.13770127221800        1.64582949976352        1.24082651914450
h           -0.43972028785710        1.08119191184899        1.84238287927830
c           -4.77298412413582        0.41162258101995       -0.14811791298993
h           -5.69863817323998        0.97243453131714       -0.14220617886511
c           -3.95460550661099        0.16116644260737       -1.27939008023271
h           -4.05511845791643        0.46291759614992       -2.31401858177550
c           -2.96629056140522       -0.71258632296565       -0.75981441631777
h           -2.23225311515735       -1.23480694619467       -1.35995517359924
c           -4.31080687628075       -0.24078283090060        1.02351471310333
h           -4.86407836488055       -0.32187312709017        1.95010398412375
c           -3.17737640070275       -0.98676863155860        0.61300501817579
h           -2.57853161786292       -1.65406340831554        1.21882930546105
fe          -2.83156794410190        1.01509174972472        0.24725654091121
c           -0.07246645742996        0.99269643923555       -1.02821272067424
h           -0.36535498983422        1.02360432216484       -2.08058852521561
h           -0.06500359986377       -0.05346898745686       -0.73088930398515
n            1.40849639548588        1.31788768324094       -1.00305184681649
c            2.04803330439172        0.89768891408297        0.30232553803187
h            1.51549934246007        1.57495514654613        0.97240799404921
h            1.73078802296054       -0.10552977636663        0.58867287870993
c            1.67079112840414        2.71405277801912       -1.42456724110221
h            2.74708356634202        2.79178899497471       -1.56580586616748
h            0.91723091939686        2.78901910781472       -2.20717527866072
h            1.41850677177884        3.47056546957545       -0.68302198402543
c            2.06235873661530        0.46217008147838       -2.02919777158072
h            1.74264716893989        0.98509835106328       -2.92877333167182
h            3.13896644697833        0.61961597983594       -2.01795404276019
h            1.68655057673094       -0.54733081560014       -1.87407802501814
p            0.28728100476404       -2.72016966771242       -0.06391120269664
f           -0.19499621462615       -1.96957282765460       -1.47545656050288
f            1.83228647947817       -2.17153529549265       -0.45323588830901
f            0.60290747769191       -4.14655246546596       -0.76356088606804
f            0.91667133069494       -3.25089692041824        1.33377954096570
f           -1.22895554138451       -3.19916044841428        0.27403722093211
f           -0.02586970745839       -1.26934096390893        0.72280115002009
c            3.52554078619712        1.17759978281962        0.35735379435977
c            4.36447071481283        0.06354863868338        0.37272131457237
c            4.09815362655473        2.43500504548973        0.54590532049866
c            5.73516494043073        0.23330110543253        0.50319153942466
h            3.86924880729533       -0.89991244191161        0.34318721528240
c            5.46878486440073        2.65370244336560        0.52235456007196
h            3.29385283017418        3.16301381509038        0.57836440645063
c            6.26459445539894        1.51667061821987        0.49013838640835
h            6.28015944879385       -0.70356609155066        0.49561925928041
h            5.71869738616758        3.70601021547553        0.59766179928670
h            7.34707312686990        1.52833654711480        0.43401736900645
53
 energy: -94.981266210764 gnorm: 0.112671637679 xtb: 6.6.0 (conda-forge)
c           -2.91567520676107        3.04013862289511        0.43938328465642
h           -3.73902323414372        3.74132720989223        0.44259116545611
c           -2.06695750850391        2.73129892456340       -0.65010897929519
h           -2.22849025063491        3.18849599327362       -1.61776619819283
c           -1.05334191178130        1.87694133134332       -0.13280839413980
c           -2.42932967445226        2.36486453794455        1.58510651135817
h           -2.75110168454171        2.43156698999405        2.61536457340749
c           -1.24801561871214        1.65702177698610        1.26124331439015
h           -0.55439174947854        1.08207556076667        1.85805644736643
c           -4.75453762450802        0.16020554223359       -0.30344476312065
h           -5.67013829845484        0.69432743086486       -0.52200739666186
c           -3.71143858424858       -0.25449396603229       -1.17074936090127
h           -3.85557901646327       -0.28195495589059       -2.24316820542761
c           -2.70932272508444       -0.96004774619135       -0.45791918131677
h           -1.82365021924164       -1.45466347846479       -0.83558804443463
c           -4.27766952702013       -0.12267843699350        1.00213446173207
h           -4.98373125885678        0.09526616195465        1.79284909802088
c           -3.08363047567641       -0.88066424052019        0.90515027271518
h           -2.45576570054124       -1.33442233709457        1.66066987804729
fe          -2.87099612772327        1.01263074657878        0.17578923118400
c           -0.03333480306572        1.13519229958682       -0.93914573696861
h           -0.18267100137645        1.07287409867526       -2.01990888816804
h           -0.04267249909487        0.12730539948741       -0.53049450158442
n            1.43713160706724        1.50423972857494       -0.90499952987141
c            1.97791258835035        1.22352640463388        0.48004218518550
h            1.55399687702393        1.86513748176703        1.25458926258896
h            1.72050950466332        0.16541663315499        0.53691445053926
c            1.62185747849200        2.93279126009859       -1.25265973598336
h            2.64903956613040        3.03950395478090       -1.59603423315752
h            1.03521480031984        3.24237127903376       -2.11634884026157
h            1.33675775513367        3.43298492030932       -0.32833692115866
c            2.12387131039088        0.74317773525736       -1.98293147568661
h            1.71341816567884        1.04850273517203       -2.94376992072011
h            3.18721370584855        0.94219842698911       -1.86591219711726
h            1.92577248999995       -0.31063405578682       -1.79685745052391
p            0.31692573926732       -2.71856775798370       -0.04955654273274
f            0.00042059848002       -1.86209006917201       -1.44766873215644
f            1.93584211478268       -2.28247646341322       -0.21852237949396
f            0.53788140872398       -4.04290318416090       -0.95565361627867
f            0.65297076282694       -3.51563447504331        1.32270487724375
f           -1.26543903350970       -3.06721040264769        0.08153350686441
f           -0.00127534254437       -1.27114674910304        0.74139485706864
c            3.48005949819684        1.26441430751377        0.40073649766955
c            4.17408228155546        0.05718761678276        0.47874691791505
c            4.21991744977036        2.44533485530825        0.35031826225743
c            5.56123014623959        0.04089956024066        0.46472776120806
h            3.69312337293471       -0.91322542881073        0.51550699003319
c            5.58989935472252        2.38685089188638        0.13411842102318
h            3.83006468156649        3.45455649755402        0.43655418303416
c            6.29930367122366        1.20644463279788        0.30898615826195
h            6.13888333244148       -0.87278234028339        0.54409196342299
h            6.11121245829271        3.27808062302082       -0.19667048586044
h            7.37789049280511        1.29742750018217        0.25051976873245
53
 energy: -95.008264523536 gnorm: 0.121215276781 xtb: 6.6.0 (conda-forge)
c           -3.14322637672869        3.11444684481616        0.11664364697858
h           -3.99329140444518        3.76826179107153       -0.02297431415086
c           -2.20258573183210        2.55591334776215       -0.78109385042829
h           -2.31803773976476        2.75747941304974       -1.83822414231748
c           -1.14720467106455        1.93023997753036       -0.06022835793739
c           -2.71513998083272        2.78590126088844        1.42584517036477
h           -3.03686595496627        3.16358554094156        2.38671202497263
c           -1.53037251329381        2.02165141303632        1.30888413957766
h           -0.80792941637068        1.66797990872213        2.03058739994496
c           -4.58944409921960        0.15556839101132       -0.58761539176446
h           -5.27064584225805        0.71203629958174       -1.21824052826418
c           -3.39392615624281       -0.34612252890020       -1.16319477300974
h           -3.09581485488109       -0.49258157758229       -2.19338511817090
c           -2.75798827109250       -0.92957777867194       -0.03832492520946
h           -1.82349853486083       -1.47520475446990       -0.01159635461891
c           -4.66919398574718       -0.03308615423261        0.81595614491301
h           -5.47028582766713        0.03988862868244        1.53995835155842
c           -3.49478252268895       -0.75001977396111        1.15719150016144
h           -3.27408568841389       -1.15911161873030        2.13435946419134
fe          -3.02030758544129        1.06959594509623        0.27767695815057
c            0.02332023462740        1.22435573672190       -0.67046190692584
h           -0.10807071444349        0.88886685334676       -1.70216801804870
h            0.25462222910516        0.34169038902919       -0.07858327286877
n            1.33384809011809        1.98699074483059       -0.69365818842505
c            2.06620123340903        1.80496891198280        0.61787205119469
h            2.07869557621997        2.74938265990745        1.16488124003432
h            1.52167824508661        1.02011113988497        1.14378089834855
c            1.13497187738022        3.44041490131926       -0.90284051867875
h            2.07459424282123        3.94730806031239       -1.11394672248192
h            0.63394849962061        3.45742147309620       -1.86960555627123
h            0.55380959488528        3.82758338471662       -0.06725737270186
c            2.12162818977456        1.48967719339770       -1.85333307388870
h            1.53453832948982        1.45926622067172       -2.76946970972326
h            3.06781506428303        2.02099372304419       -1.93353876841069
h            2.43883106176781        0.45938141259532       -1.70413880837989
p            0.61838238323228       -2.84309466234842       -0.10579070717190
f            0.40983302257174       -1.82046945793927       -1.40932133023647
f            2.18793523668290       -2.30540146465855        0.18917567648517
f            1.23585680061354       -3.96390546259078       -1.09886982261110
f            0.77755756958661       -3.82403123262926        1.17630512356546
f           -0.91850388829444       -3.35608502977651       -0.23783630621179
f            0.15951061063823       -1.57911768570342        0.90102731068954
c            3.50361047380763        1.41041580362018        0.41150070976281
c            3.74401342044603        0.06959037382350        0.71073833708241
c            4.51871862772324        2.18717905320322       -0.14590351273448
c            4.99333163787721       -0.50733515909006        0.53466454165946
h            2.99113864465280       -0.58793196608359        1.12932907957534
c            5.69689449909094        1.52125300229052       -0.45486517921871
h            4.53643030375931        3.24077401461595       -0.40585372929820
c            5.97909086611733        0.19857014792274       -0.14170795313957
h            5.27243563722890       -1.54138526430206        0.70091088688112
h            6.44104008767741        1.89487753707753       -1.14922182672950
h            6.86417621348213       -0.27600403962007       -0.54968958421309
53
 energy: -95.008251340899 gnorm: 0.119833279015 xtb: 6.6.0 (conda-forge)
c           -3.01022414033242        3.09274882932862       -0.36406027493308
h           -3.75052335081584        3.73599975918713       -0.81987058137564
c           -1.87840890805550        2.40337505219429       -0.86050280367879
h           -1.70250412031185        2.41976533420883       -1.92833770061022
c           -1.15162987458816        1.88111423999793        0.24583317193401
c           -3.02065532927074        2.96146479592966        1.04585620757548
h           -3.60619383550887        3.34305579711547        1.87105381835111
c           -1.85572718113617        2.25478745516028        1.42662019143312
h           -1.50752541417663        2.08039234039293        2.43469014821129
c           -4.44087756023095        0.04520175112586       -0.88547082733523
h           -4.88991624324021        0.31245372222118       -1.83326883108304
c           -3.21464787263730       -0.65208595473973       -0.73580732556926
h           -2.72210338750770       -1.05694777604410       -1.61050703635555
c           -2.99904254019873       -0.92569508728792        0.63853672887675
h           -2.17655271620257       -1.50674694612473        1.03550462068409
c           -4.90702223316039        0.36912769083424        0.41443100354540
h           -5.86180289651930        0.86692887268998        0.52324516442863
c           -4.03688544006739       -0.26350198024061        1.33764242459112
h           -4.26497717206128       -0.32079021581678        2.39386810120252
fe          -3.01480553605757        1.10079432678845        0.26048360314620
c            0.24252435612737        1.34028063861786        0.17786934470321
h            0.39667758222098        0.43548179624304       -0.41526614765416
h            0.58720244924419        1.12486725450972        1.18668703618442
n            1.14531831621708        2.40910951265878       -0.40711044826203
c            2.45998817390728        2.48036612573497        0.33864438186646
h            2.86593508511442        3.46668568336726        0.10696936980097
h            2.28052881124968        2.45504560173340        1.41393053372469
c            0.62775194934281        3.79520301031382       -0.32574320472797
h            1.43121312040656        4.42883849642627       -0.69635473245376
h           -0.40423248739803        3.83564187610691       -0.67117208635796
h            0.59396369214685        4.13314478560169        0.70890742886069
c            1.55216989400973        2.19145618618879       -1.82127553633485
h            0.61614066074698        2.24404050524228       -2.37443900484747
h            2.06629965643692        3.01301495942551       -2.31595884636649
h            2.04005677160500        1.25338719236606       -2.07891665000818
p            1.06645730753431       -2.89865280931999       -0.16124492862600
f            0.95493343150343       -1.61244510662795       -1.22033859795022
f            2.54412993346934       -2.31505965075587        0.40046490566919
f            1.89248831011955       -3.70739470790975       -1.29584043355947
f            1.17393074721757       -4.07548996673662        0.94999167027884
f           -0.34866505803184       -3.48461909943472       -0.70593453402604
f            0.30513223450929       -1.91922172336475        0.97144324704754
c            3.34779203206952        1.29014213198779        0.09455894811989
c            3.20995960752827        0.13021436644621        0.85660836530028
c            4.47484479374139        1.45580495693024       -0.70968790583024
c            4.17376798286455       -0.86076628873673        0.73968199675114
h            2.48532020381207        0.13491066751019        1.66236882526348
c            5.27309298325026        0.36623504902812       -1.03007890823366
h            4.62604290962892        2.48849788189273       -1.00740348846160
c            5.12434084566689       -0.78547314680731       -0.26939949517057
h            4.12426680408061       -1.62908347427875        1.50259406475526
h            6.02087109078037        0.50962491875399       -1.80192496232768
h            5.70707415162736       -1.68293943505136       -0.44266772043234
53
 energy: -95.013055858651 gnorm: 0.118453036903 xtb: 6.6.0 (conda-forge)
c           -2.99414985723680        2.70232014130719       -0.74613494808109
h           -3.65740465748518        2.88031909387122       -1.58159119561450
c           -1.71944429682777        2.10639647487697       -0.89679284248900
h           -1.42018059180964        1.72899000825115       -1.86606476892811
c           -1.08249715488931        1.98751788683732        0.37013634911554
c           -3.12602768394100        2.98845693651851        0.63442390688735
h           -3.88317524114296        3.56989816765244        1.14243157357321
c           -1.96513709260099        2.56875210164147        1.32551907223182
h           -1.63099217090367        2.66264233328987        2.34894221593959
c           -4.03661581632836       -0.28263280355118       -0.86861528333102
h           -4.13118396488121       -0.20706027088936       -1.94412728622367
c           -3.09050365434277       -1.02604821935944       -0.11731384468923
h           -2.26796187191302       -1.67633808935674       -0.38594155983935
c           -3.33293009076695       -0.80363296052022        1.26179096362363
h           -2.88195613853709       -1.24971808856588        2.13890260604990
c           -4.91742522295246        0.34978457645224        0.04581715654292
h           -5.81648495742976        0.91977740468537       -0.14925314609432
c           -4.46232117076394        0.04516070517743        1.35339593660544
h           -4.92937621504848        0.27975030073284        2.30089146024354
fe          -2.96886459740178        0.99418400524856        0.27272914487431
c            0.38509091197755        1.72465979758373        0.50384091819440
h            0.70459469578250        0.70409101609662        0.27891749835103
h            0.63488328503337        1.80445235148647        1.55937677773455
n            1.24161790327078        2.70893722989364       -0.26894163911909
c            2.71001357599942        2.67672897061998        0.09487339696736
h            3.31353478552017        3.24130696696647       -0.61808263998600
h            2.81185663209112        3.09891242702292        1.09511147985186
c            0.87891436785802        4.07243857042763        0.18389495164264
h            1.47262288659104        4.84470390759064       -0.30140199964304
h           -0.15281053845881        4.25581630800794       -0.11252469883000
h            0.92241229580878        4.15549051374131        1.26881823147462
c            0.99820289023663        2.58542785997541       -1.73122021285208
h            0.06964115919615        3.00794595111618       -2.11090065076504
h            1.83757033084322        3.12783243044445       -2.16163789249212
h            1.02729982883437        1.51509938003300       -1.92599261543510
p            1.18387195521917       -2.89919787562272       -0.33694361924761
f            1.39626941948462       -1.36310065786431       -0.95641103934357
f            2.61257093980086       -2.56437679101217        0.49150635199997
f            1.97597025910743       -3.53955335964978       -1.59639697949386
f            1.00188694108170       -4.35201820441124        0.36129528037603
f           -0.17948744075076       -3.01544695938874       -1.21464053552977
f            0.29478957046520       -2.26870041526905        0.94129309117438
c            3.26713350534873        1.27992463817909        0.04045277769080
c            3.78237927728236        0.80972064919736        1.24816944129244
c            3.68609177544304        0.63641930917761       -1.12354034787388
c            4.56331552976549       -0.33623111321477        1.28784518487550
h            3.49462115539184        1.43572825004181        2.08464059853373
c            4.35184813500258       -0.58153016712686       -1.14305237979450
h            3.38776137393682        1.00265631673248       -2.10068903848877
c            4.79028268090465       -1.01778071676462        0.09978822150841
h            4.89038004526316       -0.63195077512430        2.27798415625497
h            4.32385907321344       -1.11682718965735       -2.08547097265053
h            5.26638451733133       -1.98225038593912        0.23458818585883
53
 energy: -95.014105608339 gnorm: 0.118806925713 xtb: 6.6.0 (conda-forge)
c           -3.06369610134949        2.56470191324225       -1.05071197661255
h           -3.86398628969264        2.92054449192942       -1.68513249639458
c           -1.86400696040518        1.85020897459493       -1.28080528769162
h           -1.63204782127555        1.36646724020087       -2.22084327524797
c           -1.09203812405591        1.88101812167088       -0.08579132524340
c           -3.10732506523257        3.01354039858676        0.29161783836257
h           -3.88391680151595        3.62862157071503        0.72520585598987
c           -1.88148862660373        2.59544333270792        0.86078525510047
h           -1.53247192893488        2.84753000075785        1.85199806386776
c           -3.32958128412381       -0.94916086645110       -0.35512334109130
h           -3.15198410355219       -1.50832687488729       -1.26461387279898
c           -2.49159268609476       -1.01897940818652        0.78730785423480
h           -1.47608393651945       -1.38783568505406        0.72173518624450
c           -3.15887073191710       -0.28842874639679        1.80279046703798
h           -2.78826537162842       -0.30413431819466        2.81969718955493
c           -4.51372451920303       -0.26992420241122        0.03011164367417
h           -5.32381809649987       -0.21854660310693       -0.68568259470919
c           -4.44923672052485        0.12319627338711        1.39061716835915
h           -5.28293461123481        0.56232778181765        1.92262450421600
fe          -2.88785790188096        0.98236227766053        0.30971999254794
c            0.35753054166957        1.58768458460454        0.14549262015218
h            0.70734913636375        0.68840845988035       -0.36750180922223
h            0.60895020988118        1.36682728302487        1.18034975186456
n            1.26827228048844        2.72105011220904       -0.28539666133513
c            2.65290051057701        2.68903202881210        0.32399990462561
h            3.26168318538367        3.42018778062065       -0.21087149734389
h            2.60259612369474        3.05086562420205        1.35143994840672
c            0.70949376847579        3.95948561260245        0.30603791859040
h            1.26319830884258        4.83460512163187       -0.02858697727382
h           -0.26989111553549        4.27921510071041       -0.04684535115687
h            0.75951288177027        3.74835371280373        1.37316941608959
c            1.28664448539674        2.75432892262278       -1.77244712970687
h            0.24233070387793        2.93349947012129       -2.02187107250769
h            2.06905808356554        3.39924385640124       -2.16730597284392
h            1.49607337142659        1.76806592313964       -2.18209432925503
p            0.95804053571979       -2.73427228884418       -0.51233292137112
f            1.14009943969789       -1.07689386267803       -0.60397645771235
f            2.30552057589956       -2.89279649909365        0.48705835244823
f            1.95163829821766       -3.01530662973907       -1.76032363494996
f            0.69191069940252       -4.32759055077259       -0.36449909409661
f           -0.33576617156701       -2.60922194095193       -1.48857120354363
f            0.10098298194666       -2.49702171743092        0.91281554042045
c            3.36926135567006        1.36625247861433        0.28542506243499
c            4.31250755876127        1.07168351981550        1.26963302032437
c            3.25692400264920        0.45778640328985       -0.76651356371662
c            5.00595868054329       -0.12952472977288        1.29904959158214
h            4.62230083567469        1.74306342497205        2.06187756425309
c            3.81959880865426       -0.80594238456113       -0.65075608683713
h            2.56388229762932        0.52220336477124       -1.59927631631053
c            4.68275908900818       -1.12626646534566        0.38825255966012
h            5.72159530884890       -0.30010649078884        2.09501603465478
h            3.62490643986253       -1.68850243284828       -1.24963982680868
h            5.04350220298837       -2.14662644912296        0.44969882409391
53
 energy: -95.006247857329 gnorm: 0.124590063196 xtb: 6.6.0 (conda-forge)
c           -3.08087472408115        2.14364373866734       -1.32013057894939
h           -3.81416165220693        1.99307624895474       -2.10064156843442
c           -1.75430798399479        1.66543026382182       -1.43941858947437
h           -1.30192402509644        1.20190700941132       -2.30658489915598
c           -1.04244009934992        1.95680968946609       -0.24221957383723