173
 energy: -266.383983697066 gnorm: 0.000552673916 xtb: 6.6.0 (conda-forge)
C           -2.65476999997028        3.04074999992496        0.68276999996197
H           -3.42083568528733        3.79093708961215        0.78356900875999
C           -2.07704149298947        2.61429778133087       -0.53658414863123
H           -2.33478598274631        2.95535223449553       -1.52257664991955
C           -1.03218977977626        1.72387319829073       -0.21682582120100
C           -1.85905463550694        2.54253349580728        1.74893330783687
H           -1.99851580432002        2.74222377438287        2.79511887907846
C           -0.88346824186038        1.72239488508521        1.20836411788803
H           -0.14525579679144        1.17612079604762        1.76474790637540
C           -5.00608823890623        1.10723149123091       -0.13893334211905
H           -5.42361166567737        2.03079450401191        0.23338115550738
C           -4.29214022459345        0.93968997824489       -1.35011348094529
H           -4.22046139423656        1.69485628441770       -2.11512696792645
C           -4.28629026560038       -0.50082257635992       -1.71269596181749
H           -3.44020406960854       -0.90509910768180       -2.24960966939094
C           -5.13558634971902       -0.13005568891126        0.51136352051604
H           -5.63363434929664       -0.32552708832855        1.44410676714515
C           -4.83053422731213       -1.13783541700142       -0.45873271108062
H           -6.03258197134353       -2.80701494085402       -0.48583377046922
Fe          -2.99319788957885        0.91887712420502        0.23950125306873
C           -0.16926818268920        1.00733868927345       -1.20040879710385
H           -0.71878720430335        0.87250733241717       -2.13346033652810
H            0.09880059007293        0.02690573807174       -0.80336585839077
N            1.10792170778014        1.72157596014377       -1.54273228959245
C            1.89812431791938        1.93561971535782       -0.29100761720509
H            1.35904152936427        2.67564223510548        0.30305210808021
H            1.91034731137285        0.98772659237292        0.25116817986888
C            0.79014591755197        3.00559501060758       -2.18474674688864
H            1.71107581596658        3.51833559768869       -2.44804898587028
H            0.21196543167323        2.81453915677531       -3.08615188283979
H            0.21433218719372        3.62942189136261       -1.50590548997304
C            1.85830020269671        0.89269348694180       -2.49869906763752
H            1.24580324224475        0.72899460199403       -3.38301606536691
H            2.77166598938867        1.40699549918448       -2.78930718460577
H            2.10467468315861       -0.06695872306366       -2.04818021672376
P           -1.85985289969937       -1.85691097644520        1.57403595622417
F           -2.09820175173676       -1.20655400686044        0.09445703653911
F           -0.37735488400617       -1.23029208531833        1.59780779908797
F           -1.25927303239741       -3.19957249347938        0.88915145417078
F           -1.60646210470956       -2.49460243366422        3.04885701395466
F           -3.32804825608648       -2.51187527429498        1.55965082094007
F           -2.46693156952705       -0.51737650116155        2.25422605161375
C            3.31612860408310        2.38652971250046       -0.50653894983356
C            4.39081976388363        1.33778392321284       -0.37853496580544
C            3.65979261945727        3.67226038410753       -0.63831875542032
C            5.65701796420864        1.69754868722466       -1.16138312760522
H            4.02586397388517        0.35867187942097       -0.68688932961317
C            5.05258215292808        4.05736168376558       -0.74570152092519
H            2.91990980791068        4.45814253627364       -0.64022647573342
C            6.00092199543297        3.14971314308873       -0.96886634420915
H            5.48998684951181        1.53265065222832       -2.23666057916127
H            5.29647013122315        5.10271632812541       -0.63713370030967
H            7.03880914201967        3.42920781010536       -1.07479572678866
C            2.54148565746994       -2.08853280602531        9.41755798111895
C            2.51475471651933       -3.43013386506232        9.91586562030117
N            2.49204769169739       -4.50359673371300       10.31503598602556
H            2.54059271769749       -1.39164569012515       10.25431863811968
H            3.43979697512710       -1.94144130099852        8.81965093564577
H            1.65927400317113       -1.91588524778398        8.80030067805478
C           -2.43551054483390       -1.63397898422163        6.34685285494587
C           -1.16722037528107       -1.60863193823410        6.99681184964297
N           -0.14179272775101       -1.59644021183753        7.50912228706069
H           -3.10615254940220       -2.30698326144123        6.87823505389807
H           -2.86008466871489       -0.62852415258958        6.33123959358847
H           -2.30333650824997       -1.97616746728326        5.32118909595025
C            2.21909117004956        2.80833393086848        6.49385954047459
C            2.77546222728970        3.30014005466290        5.27054885209709
N            3.21490738976887        3.69861510223571        4.29147641349784
H            2.25920431082801        3.59252719872852        7.24905104000129
H            1.18358684132654        2.51370368600079        6.32910706607085
H            2.79097331446370        1.94506754773113        6.83094266214009
C            1.48734445260362       -2.95393918564041        4.66030264113615
C            2.63163323509120       -2.18024382639856        4.28627473029381
N            3.54657970690346       -1.56120447735297        3.98502054741465
H            1.74212344149406       -4.01256129007694        4.66367733789825
H            1.15419826516181       -2.65635983389803        5.65423052941798
H            0.68311106067547       -2.77536777071257        3.94779587288172
C           -4.68682192260421        1.79270241041672        3.36333472682666
C           -4.18386157411314        1.49790934723286        4.66651858544327
N           -3.78336191942649        1.26955822423503        5.71564835412930
H           -4.61657230013328        2.86262425981215        3.18061812805669
H           -4.09294656471813        1.25960114521997        2.61764538114811
H           -5.72722644514110        1.48059435723293        3.29987594025506
C            4.66758004318226        6.74801963826179        3.72463752712774
C            3.78158740269359        7.53024889502313        4.52757089630546
N            3.05921359303289        8.14533198428447        5.17110307231269
H            4.29860273637427        5.72274812288780        3.68222725386569
H            4.71320735990137        7.16525349107541        2.71785700009175
H            5.66354115842942        6.75895645869698        4.16429607467581
C           -3.04679384487545       -5.84083709630140        2.92801519355259
C           -1.84798471990309       -6.57941846657774        2.66757711145418
N           -0.89118875389008       -7.17199524636956        2.45691506406919
H           -3.28805662152766       -5.90262993886866        3.98791322703205
H           -2.89197513934959       -4.79920456826016        2.64916011765979
H           -3.86489703770048       -6.25410164515753        2.34063791962604
C           -0.57098597216283        5.92640314947917        1.44118442492539
C            0.26173882668767        5.96560978974881        0.28487485107642
N            0.91694887848639        5.97551495354841       -0.65526620338118
H           -0.99359802882411        4.92476806889869        1.53986971150434
H            0.01858088090429        6.16283719856163        2.32580468737377
H           -1.37386121544012        6.65461744756318        1.33470068013586
C            6.80935502832354        0.78286431995401       -0.70527766958254
C            7.98229343717632        0.93709618588858       -1.52024082937392
N            8.91334758747237        1.05248944386282       -2.17671804676942
H            7.07552077525216        1.01187879672763        0.33100684095974
H            4.64029930128766        1.26516820317089        0.68787042685787
H            6.49673655808200       -0.26397934390144       -0.75586203330325
C           -6.97933481023362       -0.70660623287424       -2.01967535610098
C           -5.60751934140889       -1.23076543777226       -1.78940173758349
N           -5.23510323895895       -2.40651178247560       -0.98692208825484
H           -7.69918560864566       -1.20812228007955       -1.37103689700957
H           -7.00380108923398        0.36306159261707       -1.80847316342123
H           -7.28350905853595       -0.86328072650887       -3.05497226329067
C            3.60781521246430        7.66862053449598       -1.61972223494829
C            4.29399152369655        7.84822261448812       -0.37902917415832
N            4.83437370527377        7.98368692847452        0.62214230837445
H            2.68996666582029        7.10832425815495       -1.43492720176449
H            3.36485762558728        8.64196484658163       -2.04319266017927
H            4.23972867635031        7.11866620145152       -2.31570982487570
C            1.94435353870548       -4.09325965380499       -0.39877282106861
C            2.47031979807583       -2.81961343187211       -0.76579913681415
N            2.88470408408413       -1.79520196285021       -1.06735966148455
H            2.61749904266817       -4.58337635907168        0.30299856917339
H            0.97221264658305       -3.95187779366261        0.07251527827737
H            1.83193218594526       -4.71087410686139       -1.28881053517472
C           -5.35425544737287        4.74908652599083       -1.98287056550895
C           -4.28059623527534        5.47833911804175       -2.58494584373663
N           -3.41498408624156        6.05542744727708       -3.06225412928820
H           -4.94567937289214        3.91008163178103       -1.42004829641699
H           -5.91022245964847        5.40568856832715       -1.31492510082301
H           -6.01981911604271        4.37636065422128       -2.76027778537387
C            7.26608789667444        2.88595309622756       -6.63169742973632
C            7.33152055223417        2.26579816228016       -7.91943177905648
N            7.37819599246830        1.76870633778107       -8.95051715890925
H            8.23123228916445        2.79850638993003       -6.13576514388789
H            7.00923943333212        3.93865074682292       -6.74571387651872
H            6.50151991392417        2.39240301420162       -6.03051387046230
C           -2.91144334141625       -4.25803274598841       -1.93089413797429
C           -2.42349506787297       -3.98485275565595       -3.23991924856695
N           -2.02873149051070       -3.77080732967845       -4.29522791314906
H           -3.76964987231885       -3.61353412278747       -1.70380053446530
H           -3.20954309496923       -5.30286349560574       -1.86243485647102
H           -2.13216486231079       -4.05278376962681       -1.19963802881393
C           -0.27953177358534        6.78624240654747       -3.83295099058644
C            0.22703073413630        6.13722291586179       -4.99894611508525
N            0.63243869630892        5.61328092931963       -5.93431002814701
H            0.26623023475439        6.44321918930608       -2.95406044016403
H           -0.16425283250878        7.86376584736984       -3.93844981180500
H           -1.33614937076871        6.54747730448384       -3.71181354951497
C            4.58034390390338       -1.08278063940707       -4.30004234920737
C            4.64101856949787        0.28883713745597       -4.68169754253423
N            4.68588637215204        1.39705117542268       -4.97355520320649
H            4.30174006303490       -1.16242678941959       -3.24979971095105
H            3.83196691165495       -1.59705395806048       -4.90434228549816
H            5.55191021205188       -1.54837060835152       -4.45932815230923
C           -1.45505264876676        0.78816432891670       -6.98044518181099
C           -0.98904350809169        1.01747206407099       -5.65050331356143
N           -0.61373525691776        1.20577044907793       -4.58534437045701
H           -2.18694756197696       -0.01860310943907       -6.97506680041411
H           -1.91402005376740        1.69864298618200       -7.36436332308139
H           -0.61229734024805        0.51400888261934       -7.61395677673929
C            3.54144808676578        4.18920048800590       -6.78750991867477
C            4.50443070774507        5.24048020784177       -6.69652072042741
N            5.28119908332350        6.08028170663445       -6.62078765353093
H            2.56252389462558        4.57345473648095       -6.49741396577431
H            3.49957494318860        3.82777558952422       -7.81400621613064
H            3.83169919886782        3.37133658087349       -6.12843584710022
C            0.24214330081831       -4.20959574724826       -6.58347644897840
C            1.38986163106776       -3.47981292919425       -6.14948271719923
N            2.30466075528346       -2.88771525853282       -5.79561993129522
H           -0.57094876744049       -4.04764418729346       -5.87281943791004
H           -0.06008077331077       -3.86424288092773       -7.57084037171373
H            0.47900842562009       -5.27169469413211       -6.62703782898700
