163
 energy: -251.593439153021 gnorm: 0.000633794536 xtb: 6.6.0 (conda-forge)
C           -3.53561000001162        0.97470999998697        0.77918000001778
H           -4.60706134772000        0.99156481026738        0.84749603067966
C           -2.75969115558496        1.72640735401813       -0.12810016232170
H           -3.13025892157284        2.41523664152099       -0.86359559288248
C           -1.39099549297954        1.43796569129380        0.12148454217448
C           -2.65738608359840        0.21948231330215        1.58913435648041
H           -2.94392591714667       -0.42337497574591        2.40161598507836
C           -1.33514767814275        0.50963783409647        1.19044834065552
H           -0.44154724791676        0.10701217050447        1.62594871400963
C           -3.74195878456223       -1.33563868641963       -1.53688921276137
H           -4.96044708704622       -1.56485025947726        0.68903542511993
C           -3.05081642366874       -0.40830915356411       -2.35785340402292
H           -3.50221457621564        0.37952193876236       -2.92818025141048
C           -1.67432936671746       -0.71093787576519       -2.29093195930563
H           -0.88580954399995       -0.20572625551293       -2.81333599457291
C           -2.77031189483928       -2.20711964483751       -0.95705932514496
H           -2.99510167292236       -3.06242354598172       -0.34683016844082
C           -1.50578878376381       -1.82985844625371       -1.44973894673287
H           -0.57097280288942       -2.31336330611942       -1.24578460867964
Fe          -2.40144480133858       -0.23652017661393       -0.43899844988909
C           -0.25039219395878        1.94505051735457       -0.69129987511183
H           -0.61026498705430        2.20285799847196       -1.68858943923159
H            0.49941399345354        1.16030462780422       -0.78022261596612
N            0.40956474492660        3.16110585838703       -0.12926617490437
C            0.99895615951637        2.87375387345442        1.18709136582574
H            0.22058891208192        2.58149100713373        1.88819561562255
H            1.71927571482056        2.06251094144374        1.09916067853935
H            1.49941177267047        3.76729019507907        1.55334665863317
C           -0.57782884763234        4.24508488207773        0.00178715806981
H           -0.08070535573130        5.13767464739075        0.37587919541713
H           -1.01185448542357        4.45161388083477       -0.97445060303981
H           -1.36017230959226        3.94560982927864        0.69409532771873
C            1.47347639035434        3.58323252115012       -1.05259898529276
H            1.05041633390797        3.80915173698732       -2.02844173468486
H            1.96174051340699        4.47118528372603       -0.65717756677544
H            2.20275419627818        2.78502792607682       -1.16742623468570
P            2.37883853482012       -1.27049679174548       -0.76761663209001
F            1.91314098154301       -2.75414467393973       -1.23246279823761
F            1.57448517572337       -0.62960388550303       -2.01725767962938
F            3.70416669213715       -1.39760904469172       -1.70212626005799
F            2.84406045446259        0.22034649048982       -0.31756210936786
F            3.19910194928289       -1.90950420868463        0.47172280182730
F            1.06609987485734       -1.13017411971737        0.15646497078828
C            3.12585622468235        1.54618773304060        6.21237185813409
C            2.57629166279284        0.87022740043941        7.34792206650000
N            2.13306393401989        0.34235136621088        8.26280543844621
H            3.07734714401432        0.89561663187899        5.34075973649788
H            2.54867255285334        2.45330494600365        6.02565837006966
H            4.16315439019361        1.80903988991685        6.41463603177392
C           -2.21996833811651       -1.80169148046057        6.29013862805010
C           -3.04347648514460       -1.81665774581549        5.12341816550592
N           -3.69802061027632       -1.83009387777818        4.18312023587430
H           -1.17660196969785       -1.83239440490304        5.97497542722316
H           -2.40074817134528       -0.89147012742692        6.85963227245358
H           -2.44004117831013       -2.67105840160619        6.90764514270016
C           -0.71074655039266        4.64119273525412        7.61555037084442
C            0.38086761413866        4.46623138632065        6.71537475900899
N            1.25177147473778        4.31970698081638        5.98458034195720
H           -0.53472759384445        4.05666668928045        8.51755241210233
H           -0.80633627121497        5.69468711442029        7.87422700246628
H           -1.62677699139128        4.29745300042477        7.13171954396217
C           -1.20303948666127       -2.78031138122056        1.86383880906368
C           -0.45137717959460       -2.38764243448152        3.01045243611769
N            0.13647450432687       -2.07257585188798        3.94268567108786
H           -2.26203876309637       -2.74837786759183        2.10959453421620
H           -1.00098091458433       -2.09417265154192        1.04341822034666
H           -0.91329559309604       -3.79182421690450        1.58304609826490
C           -4.46974693093789        2.87058126907814        3.70480790201247
C           -3.80916627976110        3.24631993731535        4.91502447252133
N           -3.28354803661126        3.55205786125482        5.88569840441031
H           -5.38916610742900        2.33920921954427        3.94679907468758
H           -4.70527163578268        3.76379405972160        3.12802945271670
H           -3.81990604272503        2.21867908452377        3.12078072079824
C            3.35706525638483        5.72111742331645        3.80288029167571
C            3.73630242353546        7.00561089738274        4.30356922018257
N            4.03490411206002        8.04080482153061        4.69415623599193
H            2.67436630013851        5.24591977715251        4.50787767088255
H            2.86003811670286        5.84792780245468        2.84048105798066
H            4.24439127214583        5.10293331545040        3.67748454129170
C            2.30316190114303       -6.20826660181219        3.16582433380966
C            1.12971578897644       -6.05293307435989        2.36666801591757
N            0.18614433503366       -5.93385653874207        1.72755252593897
H            2.99954179845591       -5.40129671077070        2.94002801976775
H            2.03343570228179       -6.17050964010992        4.22039842629017
H            2.77370833886632       -7.16420580160919        2.93916671142481
C           -2.89442344585522        9.58375849892307       -3.28799853193253
C           -1.75943925388963        9.33197430342783       -2.45783966729526
N           -0.84715714627864        9.13072886517725       -1.79499658706461
H           -3.58868244632192       10.24021177835646       -2.76518412487107
H           -2.56975858926853       10.06028022360557       -4.21202854555839
H           -3.39447623040314        8.64240856759937       -3.52174936264691
C            6.49867448624242       -3.50970271091777       -1.29889755257863
C            6.75287896645985       -3.98412240604739        0.02748438320583
N            6.96266218105904       -4.36663240151248        1.08621916167012
H            7.34735460016949       -2.92425414508726       -1.64911148231969
H            6.33704026602971       -4.35575554178411       -1.96515070203472
H            5.60890167622568       -2.88179179091050       -1.29193814185882
C           -7.05589208994836       -1.69560236530349        0.00940191461520
C           -5.59836353131582       -1.55275105015797       -0.20047967364616
N           -5.10366946791308       -1.39410451033386       -1.35453347544118
H           -7.41646571639775       -0.88723474485191        0.64397475004993
H           -7.58845322252766       -1.68567150118031       -0.93644062152496
H           -7.25643294084935       -2.62957189927141        0.53300187588629
C            1.90245256197289        8.76340800660856       -0.01034275348364
C            1.89609190660698        7.41868975446021        0.45622894265303
N            1.87652632080628        6.33213863869105        0.82318240383415
H            1.00358617530599        8.93584069634356       -0.60538110358160
H            1.91538187221998        9.44557709879177        0.83856385976827
H            2.78435049279376        8.93182817955376       -0.62663957090044
C            1.05167642344334       -6.09355868656104       -1.53641361129680
C            2.20125327290895       -6.94434073833219       -1.58295380139775
N            3.11649243077555       -7.63192257604750       -1.62030095210746
H            0.54433696391223       -6.22619540852904       -0.58043197373997
H            1.37034772879085       -5.05600780705260       -1.62279091578417
H            0.37850156475259       -6.34635169990010       -2.35321895992052
C           -6.87704720763125        5.77343029140715       -3.40010111350716
C           -5.64515292724107        6.37293552538941       -3.79147677571016
N           -4.65448050566434        6.85720808906765       -4.10671754688555
H           -7.12151222747803        6.07436018149473       -2.38234444080172
H           -7.66903274170501        6.09380218672166       -4.07571637270602
H           -6.78282127688683        4.68654119042121       -3.44317758665198
C            5.26275487470008        2.37327340613422       -1.55603079056986
C            6.46697083395072        1.94158614396619       -2.19615550949166
N            7.43123532828684        1.60282822328775       -2.71355945832390
H            5.49935225788501        3.11929683099457       -0.79976559787016
H            4.59061947464464        2.80030300217095       -2.30229867272685
H            4.78071311827288        1.51525927527086       -1.08957206976186
C           -3.14666221061877       -3.40700554707381       -4.28239622199655
C           -2.75389440174088       -3.04542072006393       -5.60648529682906
N           -2.43743866647232       -2.75189146558738       -6.66787978814855
H           -2.30430719337680       -3.26224242522594       -3.60597893071681
H           -3.96856410253048       -2.77226171408477       -3.95430850319034
H           -3.45830293987578       -4.45022139227893       -4.26332163995546
C           -1.96947740859465        5.21571655720806       -5.28795701698831
C           -1.54269678695975        4.53201222302874       -4.11083081566749
N           -1.20941497698542        3.99276846895911       -3.15687768132107
H           -2.85067695880274        5.81373800939690       -5.04826912164921
H           -1.16985807514177        5.86690943102925       -5.63817059170118
H           -2.21835398682556        4.49298872959604       -6.06358224652341
C            2.59534019237669       -2.13333101208429       -5.10956394680636
C            3.82213883354975       -2.61165527182158       -5.67038473146276
N            4.79691204643683       -2.99786732844840       -6.13078120075568
H            2.76886904116362       -1.78867192774298       -4.09119151336149
H            2.21450018191962       -1.30802119424563       -5.71072703447779
H            1.86552416949564       -2.94064560680642       -5.09590361024117
C           -6.58697725766911       -0.01121138222533       -3.77966450062225
C           -6.68302876940665        1.40338391920847       -3.62782263662505
N           -6.75601430354093        2.54152512026040       -3.51244207354144
H           -6.10500047204222       -0.44890024160421       -2.89710950740597
H           -7.58476770258854       -0.43175215833501       -3.89628385920209
H           -5.99495811200501       -0.23763374599647       -4.66574574530874
C            3.53441726787301        2.32541236315265       -6.32546787860836
C            3.29226625581653        2.82761745899209       -5.01082871143061
N            3.09800557401644        3.23794707462560       -3.95867269994661
H            3.59052679043882        3.15520324442318       -7.02847550859379
H            4.47608747861771        1.77753515298490       -6.33462278648285
H            2.72487361169515        1.65518949599560       -6.61669909283145
C           -0.29388836713678       -1.41760672936794       -8.77938972653205
C            0.53376352464663       -0.51823659628945       -8.04388963118711
N            1.19933767843307        0.20163695100804       -7.44966887248714
H           -1.03580182745124       -1.85562666792080       -8.10893353616317
H           -0.79975542568495       -0.87822648845778       -9.57863445069300
H            0.32147748326077       -2.20929094262775       -9.20499406611302
