283
 energy: -425.551107510063 gnorm: 0.000694385656 xtb: 6.6.0 (conda-forge)
C           -3.53561000002843        0.97471000002311        0.77917999992810
H           -4.49866190332797        1.31008856544358        1.11658099583343
C           -2.82334884771595        1.46129787456400       -0.33997123673596
H           -3.13155497016287        2.24729205941310       -1.00623410066608
C           -1.57218781683549        0.78820111509121       -0.39146983891790
C           -2.73171831697221        0.01117400298809        1.42348222728771
H           -2.98426195428067       -0.49982112506771        2.33322003008195
C           -1.52122208855894       -0.10562428279362        0.70816713142613
H           -0.69482951176796       -0.74245320527183        0.95967623144847
C           -4.92438798982592       -1.07072998138514       -1.45113538527997
H           -5.88884822825159       -0.64649865545552       -1.24395464236465
C           -4.00056493652856       -0.63752964450193       -2.43129680050460
H           -4.13271418259437        0.18113801211784       -3.11394804297164
C           -2.90027737105293       -1.52140572955282       -2.40745077434826
H           -2.03307433944122       -1.47808835147757       -3.03716165488014
C           -4.39024868031625       -2.21719859974733       -0.82598157734627
H           -4.88489760508366       -2.80792407118444       -0.07629331579977
C           -3.14483170643462       -2.49842221934901       -1.42563217062559
H           -2.50173479054171       -3.32678263431945       -1.19781332270494
Fe          -3.12605137218188       -0.54377671241400       -0.58565794110719
C           -0.54959948727948        0.96145384633596       -1.46222514551735
H           -1.04596711055555        1.26578552728292       -2.38549764357057
H           -0.04540758730963        0.01024097995856       -1.62714933031864
N            0.48952939482828        1.99124152452443       -1.15416679947505
C            1.23036747889613        1.63510452675444        0.06516989337290
H            0.55051999775396        1.60936194043152        0.91365690287314
H            1.69011980790852        0.65535965155909       -0.05399813597924
H            2.00332231880346        2.38077337039931        0.24032809599094
C           -0.14392430085292        3.30822720004800       -0.97279333340874
H            0.62973800511804        4.05225201044676       -0.79438195468375
H           -0.69504975813747        3.56427297572873       -1.87531817594684
H           -0.82289414679067        3.27890493532616       -0.12436153067440
C            1.42377464869656        2.06384204916026       -2.28871108493929
H            0.87584327004899        2.33136189311207       -3.18972453018652
H            2.17421801443729        2.82532398237985       -2.08311122856895
H            1.90968080410104        1.10020931644701       -2.42961426769657
P            1.06326102057430       -3.02796918946878       -0.80841830294811
F            0.22806032321002       -4.37553833552043       -0.45841338491575
F            1.06554576470236       -3.43175693159737       -2.37664922939030
F            2.45259992366728       -3.84986342667917       -0.60354398108591
F            1.90503347611683       -1.68381979074154       -1.14282900318658
F            1.07849630451778       -2.63536977351010        0.76932681255452
F           -0.30621792247261       -2.21247987484885       -1.00242621461276
C            0.99999687311090        2.79818689232344        5.72704899984116
C            0.65092971397190        2.28818704194537        7.01307687679774
N            0.37085044306907        1.87746973086296        8.04578441525102
H            0.10409693591589        2.88166572821096        5.11342624197577
H            1.45536511255422        3.78104550662867        5.84022342438122
H            1.71078887320491        2.12404202247892        5.25092586822200
C           -1.83906552878708       -0.32078983490313        9.16010722319454
C           -2.31890170577414       -0.94697093511167        7.97200874427894
N           -2.70194958520561       -1.44599704165510        7.01362733952338
H           -1.08516194103577        0.42217208249694        8.89320154844938
H           -2.66780848853115        0.16752872683242        9.67114450338789
H           -1.39957396647904       -1.07320969518573        9.81346477418632
C            0.57918975081266        8.63154677746950        4.28898417929063
C            0.22146096277237        7.54228316870624        3.43430173026441
N           -0.06611525243141        6.66604171622747        2.75513689466606
H            0.26961645082819        8.40225780971528        5.30933739228689
H            1.65782747022897        8.77794762324517        4.25925927282758
H            0.07813353374229        9.53776091150324        3.95196535147521
C            2.31017363389319       -2.72712972859644        4.06960944344169
C            2.38605235123848       -4.13468327808233        4.30624622725110
N            2.44264838089087       -5.26217101844094        4.49998562041318
H            3.27005750238306       -2.27133399063874        4.30633166343607
H            2.07372885443671       -2.55436428952653        3.02040350430959
H            1.53465494346418       -2.29499342844190        4.70029854525995
C           -5.45881738407410       -0.55957604643076        5.23644840947967
C           -6.35481022119888        0.08379497051932        6.14049403422287
N           -7.07305952368804        0.60956545313518        6.86347536458177
H           -5.97088180690616       -1.38981027423131        4.74893542348963
H           -5.13417735848410        0.15826241682905        4.48510952889093
H           -4.59298019585505       -0.93006794890741        5.78612933774093
C            6.85834133533662        2.12905299477085        4.49152830277270
C            6.37269925953932        3.28255149256343        5.18194881529855
N            5.98618288749461        4.21308443888189        5.72730444040651
H            6.01946938373615        1.51634358102628        4.16644750526196
H            7.43182406725511        2.45257175121530        3.62324182660375
H            7.49576790148949        1.54727464447829        5.15580851048819
C           -2.27128753883536       -3.31791212631931        1.73888607440052
C           -2.82079269093890       -4.63122645737036        1.66169898772285
N           -3.26463600248597       -5.68660368076213        1.60972935848860
H           -2.21536708460035       -3.01102183818667        2.78062032322042
H           -1.27302172850746       -3.32731774088988        1.30697460949760
H           -2.88289883053930       -2.61552926553381        1.17065057415357
C           -1.78180553472679        8.33381437752372       -1.74299067820887
C           -1.56041103125302        9.49940783021115       -0.94476326218469
N           -1.38112428244165       10.43162067534491       -0.30353441854801
H           -2.21231319060600        7.54770668663981       -1.12512954292532
H           -2.46562255977374        8.57699230266530       -2.55480329399660
H           -0.83164584513438        7.99448453112517       -2.15344743501019
C            5.94519648887265       -3.67834407648047       -0.45575705005945
C            6.06785697722573       -2.51081267889607        0.36298298794140
N            6.16761163978060       -1.57353511562557        1.01285208913283
H            6.36284216282585       -4.53770725133083        0.06651559917401
H            4.89025018124455       -3.85618823442203       -0.66090040868128
H            6.47670783286196       -3.52413654787084       -1.39359506642878
C           -8.44138432119707       -4.81746916782173        2.53189547778552
C           -7.67454457059936       -3.79724546412753        3.17148557510395
N           -7.05316144388364       -2.98064628021865        3.68112406488516
H           -9.31574936262700       -5.05149264351938        3.13727901521249
H           -8.76236763937447       -4.46819724778226        1.54972979701374
H           -7.82771143449903       -5.70950634402231        2.41346175187928
C            4.44593767487283        6.62288382758240       -1.11155557260792
C            3.59653375031219        5.48968031031620       -0.95657483371803
N            2.91870935504950        4.57270198647389       -0.83959098984376
H            4.66743647410397        6.76600791994689       -2.16860946293822
H            3.94656581702195        7.51270667465832       -0.72499918078922
H            5.37371688656772        6.46270920074525       -0.56444391684618
C            2.01596537620858       -7.37967475851979        0.06578857277750
C            1.94505713103448       -7.88124549135153       -1.26984643284067
N            1.89202053793501       -8.28549589565858       -2.34039433646931
H            3.00986790993385       -7.56253392514534        0.47070118909648
H            1.81656552117731       -6.30899116159260        0.05783460731837
H            1.27165521474720       -7.88048853451662        0.68268924431983
C           -6.26804833839480        2.26206590421470       -1.64556421170408
C           -5.92749770955160        3.64548232381678       -1.78168723868807
N           -5.64957242716884        4.75089993768353       -1.89191163626286
H           -7.10700579210889        2.16435243476453       -0.95800357850006
H           -6.54724074240655        1.86119663432795       -2.61917468207455
H           -5.41386956734779        1.70679908892972       -1.25750617632073
C            7.22505354424649        1.98512110251182       -2.37670628079095
C            7.15766034133170        2.84470532930970       -3.51498388852587
N            7.09850456550876        3.53050207176211       -4.43100878383410
H            7.26707955043666        2.58052193060909       -1.46571377136219
H            6.34320494354650        1.34604112078906       -2.35536989340775
H            8.11921775767126        1.36639489927916       -2.44560680531281
C           -2.05197238449339       -6.89350524556257       -5.06410281975356
C           -2.37569225247184       -6.58156956840133       -6.43790673053614
N           -2.55131511239000       -6.34906313488429       -7.54369831645259
H           -1.28656443475128       -6.18366605501016       -4.72145292845562
H           -3.01757207741951       -7.03574968924815       -3.22255563152795
H           -1.62057040553522       -7.90375073666878       -5.03687118529798
C           -2.39757432182506        4.44243437163277       -5.89909562337066
C           -1.80823809689758        3.66710463692171       -4.85620627424198
N           -1.33767347510430        3.04451348191989       -4.01759458057259
H           -2.85726281837693        5.33270183477318       -5.47237859431518
H           -1.62804064307672        4.73506774761029       -6.61225289215145
H           -3.15890546465988        3.85213112708299       -6.40768888498773
C            3.06818969761206       -4.04459806943640       -5.14534980702281
C            3.71057039290927       -2.76600340943678       -5.12558862629833
N            4.22064690416205       -1.74094785311170       -5.10582606786176
H            2.40887776617442       -4.12072688483432       -4.28153054885820
H            2.48588765678716       -4.14680800048764       -6.05970396568134
H            3.81716495055209       -4.83370782746929       -5.10104308343734
C           -5.42808396515883       -2.29196203898236       -7.53402081222225
C           -6.14182487114159       -1.01119943340484       -7.51024312560757
N           -7.04492982949122       -0.26482937573519       -6.66789132141243
H           -4.83587742570663       -2.40820780855932       -6.62830815909304
H           -6.14273683267179       -3.11061841199714       -7.59723256255010
H           -4.76805935568208       -2.32762091726271       -8.39893960926207
C            4.46114156104729        3.53504580933813       -6.58834222090317
C            3.51239832244145        4.56426551455486       -6.30295658526199
N            2.74541386988037        5.38539189197437       -6.07772236065969
H            4.72759839378856        3.57247972234730       -7.64529797974092
H            5.35268411728601        3.67879689122171       -5.97760119602238
H            4.02343581490985        2.56389570263245       -6.36249625481354
C           -0.26670693501021       -0.02921746270979       -7.95318187273710
C            0.13178817234750        1.01374823638556       -8.84148736338743
N            0.44964576400232        1.85537711269274       -9.55146419310313
H            0.38989144264599       -0.03922129737458       -7.08435555713671
H           -1.29463021390886        0.13421475385739       -7.63411702890158
H           -0.20122582857281       -0.98785475666676       -8.47049930701925
C            2.93725954485391        0.78922615237934       10.01216215398821
C            3.73722800387773        0.23492125245944        8.96234725082260
N            4.36905166984047       -0.20569089379762        8.11487846540045
H            2.69091174947203        0.01046256967775       10.73230128222595
H            3.49035967268674        1.58495092376974       10.50884722420044
H            2.02159627072040        1.19587537986482        9.58087747974120
C           -3.71173104181387       -4.66536854097214        7.15124027174598
C           -3.25228393679753       -5.06736181205845        8.44604022210014
N           -2.88370509848044       -5.38029541461105        9.48431763684652
H           -4.79485212975403       -4.76482938365548        7.10349766160155
H           -3.43371737400775       -3.62393336545217        6.98278722205731
H           -3.25221999790020       -5.29265934066964        6.38893120942182
C           -2.27703344312318        6.95720434283805        9.05775643154582
C           -1.32375266158703        7.37446971336199        8.07657832838713
N           -0.55803200636461        7.70985413526733        7.29402911629983
H           -1.79392924753324        6.89663913375299       10.03220181254310
H           -3.09200614596626        7.67884377629637        9.09776180499584
H           -2.67365747373276        5.98021331409553        8.78447117238158
C            4.52339494588912       -7.83325526522689        4.94290323880524
C            5.71531706867866       -7.43236655236223        4.26139945127784
N            6.66659681686690       -7.10752395584273        3.71166897490372
H            4.15758895536103       -8.76718502693369        4.51849552167153
H            4.73833687204845       -7.97244092342276        6.00125824947175
H            3.76607181075575       -7.05662319463604        4.82555631032996
C           -9.15593808922258        2.90979630250779        5.67898322261300
C           -8.82014397588271        2.97528940087634        4.29064373372600
N           -8.54844524630735        3.02491591575934        3.17876163680358
H           -8.53520739058468        2.15199511029175        6.16138744175350
H           -8.97201346806537        3.87674584371068        6.14473531661770
H          -10.20570430523359        2.64261476158541        5.78956798050278
C            7.79291199186129        6.66128696998932        4.16208430866636
C            8.04398640843497        5.62982045954601        3.20305377039734
N            8.23940168615222        4.79977164026377        2.43832479133955
H            7.15682877790279        6.25660528025811        4.94975210108401
H            8.73534909554530        6.99970675400115        4.58984969855536
H            7.28917218274297        7.49604138767180        3.67693424464370
C           -3.71970026029791       -8.94727818669048        1.80655587838642
C           -3.11941291721466       -9.58382501561739        0.67511257775638
N           -2.64338448678981      -10.09561410006514       -0.23279799128039
H           -3.24481800449719       -9.30561788295303        2.71870718129475
H           -3.58463994216320       -7.86751738975787        1.72685730709779
H           -4.78288768923841       -9.18131148322981        1.83161439282877
C           -5.09352789293697        6.69564004585390        2.81603611920867
C           -5.34378709813820        6.73173097218315        4.22551707146297
N           -5.54526535530999        6.76608784434321        5.35229679527280
H           -6.04135408639109        6.68157290638876        2.27990314722429
H           -4.52310694536033        7.57800245490524        2.52899883146106
H           -4.52539256380189        5.79997961804832        2.57046886808870
C           10.16437023339549       -3.39998241845435        3.59143539288536
C           11.14139922808536       -3.03756159468440        4.57485883926174
N           11.92261458312830       -2.74525026530976        5.35919255152226
H            9.16597266085776       -3.29068784450849        4.01266157419685
H           10.26491431268506       -2.75053173675936        2.72283091713411
H           10.31705691767837       -4.43609365849967        3.29255236086587
C           -9.95725696186595       -2.71853864985911       -2.73951644788925
C           -9.63995961456312       -3.35763643153310       -1.49976764618390
N           -9.38824792386418       -3.86572946684131       -0.50500323787255
H          -10.34869778495759       -1.72128741574432       -2.54256301231481
H           -9.05905473347531       -2.64194124297536       -3.35078048344682
H          -10.70736268585714       -3.30570445260976       -3.26781576355838
C            1.71359729074211       11.65315539082646       -0.13247789616051
C            2.49165874302036       10.45604815646275       -0.15414450998798
N            3.10974938497222        9.49139986491462       -0.16986276109204
H            0.65447380989520       11.38865295509086       -0.11820369686166
H            1.95741290979237       12.23538544312256        0.75484036148731
H            1.92477582961798       12.24057416317928       -1.02484587469412
C            1.80556617904592      -11.68260836428154       -2.38507193090572
C            2.32193431410774      -11.96292314111042       -1.07978655254632
N            2.73562762494382      -12.18383294987600       -0.03475420529184
H            0.78192833796077      -12.04719101338020       -2.45532932900150
H            1.81920781141053      -10.60411789931234       -2.54873458136722
H            2.42380758059925      -12.17390210600689       -3.13474401510976
C           -7.69574610776498        8.77855049579009       -4.06296406454501
C           -6.57634049814999        8.74571625974698       -4.95606681134798
N           -5.68259306061866        8.71938645510956       -5.67113243722329
H           -7.33889984091745        8.87239399447583       -3.03818937878984
H           -8.33062996830405        9.62923155261114       -4.30740389347121
H           -8.26604012851251        7.85607793899151       -4.16361557057682
C            9.23755214667304        3.38474210380254       -7.00767945171495
C           10.22476975839085        2.46168105501725       -6.53700598426675
N           11.01099933181707        1.72111734171351       -6.15514033089389
H            8.47214409121585        3.51058229644194       -6.24046832519456
H            9.70592547223054        4.34599606868510       -7.21326609632176
H            8.78175238587688        2.99828872951390       -7.91776436080471
C           -5.45168989777088       -6.53245204082114       -3.60833189797526
C           -4.39903145272837       -6.52715340286194       -4.66779124924468
N           -3.22004254235896       -6.82340687102654       -4.21045597139614
H           -5.07929059528059       -6.75423411080224       -2.59754398667235
H           -5.94537753287712       -5.56226628788578       -3.60525023589211
H           -6.20311691279776       -7.27200162416860       -3.88375506246560
C           -0.35448186817506        9.87679739837801       -6.94286092625527
C           -0.02349175042892       10.83018877573505       -5.92569503581729
N            0.23825905624495       11.59057577837911       -5.11069774232741
H           -1.41292294481785        9.62852439444292       -6.87573438134236
H           -0.14375544193234       10.30501108076188       -7.92192538476194
H            0.24398952942988        8.97756040739103       -6.80333853722229
C            5.07060758471410       -1.69578460737347      -10.02990881643037
C            4.67141768272580       -3.06824502568265      -10.12396587613469
N            4.35324786770784       -4.16563327931796      -10.20003482750184
H            4.22426149195252       -1.09362876540672       -9.70260549982114
H            5.88103014021666       -1.60248447840361       -9.30824861570064
H            5.40933296912444       -1.34733406328714      -11.00449268771677
C           -7.84308333818985        0.49952512916302       -9.16628511245291
C           -6.99641388256851       -0.02570628244814       -8.08983644015883
N           -5.89118957741696        0.38757493491393       -7.26000380638820
H           -8.65433507944708       -0.19866401512279       -9.36600781400783
H           -8.26065266068542        1.46225809728833       -8.87507280987153
H           -7.24744161886508        0.62539152815976      -10.06912248943312
C            2.48740060510256        3.84537727803246      -11.17426483567091
C            3.74127019567517        3.64557304555271      -10.52015452076915
N            4.74242207302016        3.48287927502459       -9.98638426952282
H            2.19677323969159        4.89134108638703      -11.08909441906458
H            2.57336583087720        3.57250290465545      -12.22488716781309
H            1.73470412577819        3.21737135424542      -10.69433120298206
C           -0.85491117143708       -5.28221637993411      -10.20676599013604
C           -0.54237983433148       -3.94704193520294       -9.81131083207210
N           -0.29862935287721       -2.87554031459586       -9.48668700931721
H           -1.47887447178858       -5.74188202943612       -9.43850118365669
H           -1.39266539303282       -5.26637668174579      -11.15339304084949
H            0.06656702205301       -5.85179132891166      -10.31963145418385
